
     Program PWSCF v.6.4.1 starts on 17Mar2025 at 20:42:27 

     This program is part of the open-source Quantum ESPRESSO suite
     for quantum simulation of materials; please cite
         "P. Giannozzi et al., J. Phys.:Condens. Matter 21 395502 (2009);
         "P. Giannozzi et al., J. Phys.:Condens. Matter 29 465901 (2017);
          URL http://www.quantum-espresso.org", 
     in publications or presentations arising from this work. More details at
     http://www.quantum-espresso.org/quote

     Parallel version (MPI), running on    32 processors

     MPI processes distributed on     1 nodes
     R & G space division:  proc/nbgrp/npool/nimage =      32
     Reading input from C92O2.rlx.in

     Current dimensions of program PWSCF are:
     Max number of different atomic species (ntypx) = 10
     Max number of k-points (npk) =  40000
     Max angular momentum in pseudopotentials (lmaxx) =  3

     IMPORTANT: XC functional enforced from input :
     Exchange-correlation      = VDW-DF ( 1  4  4  0 1 0)
     Any further DFT definition will be discarded
     Please, verify this is what you really want

               file O.pbesol-n-kjpaw_psl.1.0.0.UPF: wavefunction(s)  2S 2P renormalized
               file C.pbesol-n-kjpaw_psl.1.0.0.UPF: wavefunction(s)  2S 2P renormalized

     Subspace diagonalization in iterative solution of the eigenvalue problem:
     one sub-group per band group will be used
     ELPA distributed-memory algorithm (size of sub-group:  4*  4 procs)


     Parallelization info
     --------------------
     sticks:   dense  smooth     PW     G-vecs:    dense   smooth      PW
     Min         426     170     47               119505    30230    4446
     Max         427     171     48               119514    30241    4456
     Sum       13635    5445   1525              3824339   967507  142413



     bravais-lattice index     =            0
     lattice parameter (alat)  =      30.2219  a.u.
     unit-cell volume          =   28307.6739 (a.u.)^3
     number of atoms/cell      =           94
     number of atomic types    =            2
     number of electrons       =       380.00
     number of Kohn-Sham states=          228
     kinetic-energy cutoff     =      40.0000  Ry
     charge density cutoff     =     400.0000  Ry
     convergence threshold     =      1.0E-06
     mixing beta               =       0.4000
     number of iterations used =            8  local-TF  mixing
     Exchange-correlation      = VDW-DF ( 1  4  4  0 1 0)
     nstep                     =          500


     celldm(1)=  30.221920  celldm(2)=   0.000000  celldm(3)=   0.000000
     celldm(4)=   0.000000  celldm(5)=   0.000000  celldm(6)=   0.000000

     crystal axes: (cart. coord. in units of alat)
               a(1) = (   1.000000   0.000000   0.000000 )  
               a(2) = (  -0.522247   0.468590   0.000000 )  
               a(3) = (   0.000000   0.000000   2.188492 )  

     reciprocal axes: (cart. coord. in units 2 pi/alat)
               b(1) = (  1.000000  1.114507 -0.000000 )  
               b(2) = (  0.000000  2.134061  0.000000 )  
               b(3) = (  0.000000 -0.000000  0.456936 )  


     PseudoPot. # 1 for O  read from file:
     /home/mpicuntureo/pseudos/O.pbesol-n-kjpaw_psl.1.0.0.UPF
     MD5 check sum: cb766521a97cf798d01896eaf7ac9a0a
     Pseudo is Projector augmented-wave + core cor, Zval =  6.0
     Generated using "atomic" code by A. Dal Corso v.6.3
     Shape of augmentation charge: PSQ
     Using radial grid of 1095 points,  4 beta functions with: 
                l(1) =   0
                l(2) =   0
                l(3) =   1
                l(4) =   1
     Q(r) pseudized with 0 coefficients 


     PseudoPot. # 2 for C  read from file:
     /home/mpicuntureo/pseudos/C.pbesol-n-kjpaw_psl.1.0.0.UPF
     MD5 check sum: f9b2fe17d1f478429498b05d17159f9e
     Pseudo is Projector augmented-wave + core cor, Zval =  4.0
     Generated using "atomic" code by A. Dal Corso v.6.3
     Shape of augmentation charge: PSQ
     Using radial grid of 1073 points,  4 beta functions with: 
                l(1) =   0
                l(2) =   0
                l(3) =   1
                l(4) =   1
     Q(r) pseudized with 0 coefficients 


     vdW kernel table read from file vdW_kernel_table
     MD5 check sum: 8c4337f4b28e1601c069d7ef7b6561bc

     atomic species   valence    mass     pseudopotential
        O              6.00    15.99940     O ( 1.00)
        C              4.00    12.01100     C ( 1.00)

     No symmetry found



   Cartesian axes

     site n.     atom                  positions (alat units)
         1           O   tau(   1) = (   0.4936939   0.1837632   0.3360670  )
         2           O   tau(   2) = (   0.0935126   0.2650500   0.3360670  )
         3           C   tau(   3) = (  -0.1148219   0.3933141   0.2256462  )
         4           C   tau(   4) = (   0.1634536   0.0265568   0.2262223  )
         5           C   tau(   5) = (   0.0705116   0.1468269   0.2369766  )
         6           C   tau(   6) = (   0.0122650   0.0057178   0.2271502  )
         7           C   tau(   7) = (  -0.0239090   0.2714989   0.2353110  )
         8           C   tau(   8) = (  -0.0808091   0.1282706   0.2306519  )
         9           C   tau(   9) = (   0.3387194   0.4542445   0.2284216  )
        10           C   tau(  10) = (  -0.1735671   0.2509036   0.2248131  )
        11           C   tau(  11) = (   0.7682424   0.1083419   0.2254109  )
        12           C   tau(  12) = (   0.1875106   0.4345817   0.2307183  )
        13           C   tau(  13) = (  -0.2660713   0.3730469   0.2226434  )
        14           C   tau(  14) = (   0.6754309   0.2303593   0.2219986  )
        15           C   tau(  15) = (   0.6170594   0.0877604   0.2242011  )
        16           C   tau(  16) = (   0.0367228   0.4139531   0.2314633  )
        17           C   tau(  17) = (   0.5828151   0.3524134   0.2227892  )
        18           C   tau(  18) = (   0.5242760   0.2097868   0.2218050  )
        19           C   tau(  19) = (   0.4658719   0.0672959   0.2238313  )
        20           C   tau(  20) = (   0.4316684   0.3319637   0.2240941  )
        21           C   tau(  21) = (   0.3730821   0.1894489   0.2243885  )
        22           C   tau(  22) = (   0.3146906   0.0469498   0.2239784  )
        23           C   tau(  23) = (   0.2806703   0.3115655   0.2310022  )
        24           C   tau(  24) = (   0.2221259   0.1695335   0.2321130  )
        25           C   tau(  25) = (   0.1305132   0.2927832   0.2530460  )
        26           C   tau(  26) = (  -0.2773754   0.4611082   0.2238808  )
        27           C   tau(  27) = (   0.1516970   0.1145006   0.2322970  )
        28           C   tau(  28) = (  -0.4285437   0.4405845   0.2251677  )
        29           C   tau(  29) = (   0.0577364   0.2359242   0.2528899  )
        30           C   tau(  30) = (   0.0009460   0.0938459   0.2316040  )
        31           C   tau(  31) = (   0.4202648   0.4200521   0.2263540  )
        32           C   tau(  32) = (  -0.0921810   0.2168737   0.2296496  )
        33           C   tau(  33) = (   0.8497831   0.0741791   0.2280789  )
        34           C   tau(  34) = (   0.2692862   0.4001967   0.2309532  )
        35           C   tau(  35) = (  -0.1846342   0.3389440   0.2238861  )
        36           C   tau(  36) = (   0.7568165   0.1963869   0.2234719  )
        37           C   tau(  37) = (   0.6985144   0.0540809   0.2260088  )
        38           C   tau(  38) = (  -0.3358037   0.3184932   0.2222131  )
        39           C   tau(  39) = (   0.6056697   0.1758747   0.2220536  )
        40           C   tau(  40) = (   0.5472959   0.0332639   0.2257065  )
        41           C   tau(  41) = (   0.5130422   0.2979461   0.2222402  )
        42           C   tau(  42) = (   0.4545188   0.1552990   0.2227107  )
        43           C   tau(  43) = (   0.3960275   0.0128935   0.2240393  )
        44           C   tau(  44) = (   0.3620267   0.2775147   0.2257951  )
        45           C   tau(  45) = (   0.3032188   0.1351247   0.2259380  )
        46           C   tau(  46) = (   0.2123422   0.2569901   0.2366960  )
        47           C   tau(  47) = (   0.1179061   0.3816543   0.2359673  )
        48           C   tau(  48) = (  -0.0337080   0.3589573   0.2312704  )
        49           C   tau(  49) = (   0.2392793   0.0735151   0.0036225  )
        50           C   tau(  50) = (  -0.0046853   0.1753722   0.0033987  )
        51           C   tau(  51) = (  -0.0974521   0.2976166   0.0050610  )
        52           C   tau(  52) = (  -0.1558987   0.1549970   0.0044484  )
        53           C   tau(  53) = (  -0.1902157   0.4198619   0.0052081  )
        54           C   tau(  54) = (  -0.2486605   0.2772454   0.0054535  )
        55           C   tau(  55) = (   0.6928925   0.1346327   0.0053067  )
        56           C   tau(  56) = (  -0.3414218   0.3994928   0.0043428  )
        57           C   tau(  57) = (   0.6001313   0.2568742   0.0050199  )
        58           C   tau(  58) = (   0.5416822   0.1142608   0.0053905  )
        59           C   tau(  59) = (   0.0880737   0.0531410   0.0029181  )
        60           C   tau(  60) = (   0.5073788   0.3791151   0.0033519  )
        61           C   tau(  61) = (   0.4489277   0.2364951   0.0040049  )
        62           C   tau(  62) = (   0.3904760   0.0938923   0.0046640  )
        63           C   tau(  63) = (   0.9368664   0.0327632   0.0029695  )
        64           C   tau(  64) = (   0.3561736   0.3587417   0.0028596  )
        65           C   tau(  65) = (   0.2977273   0.2161214   0.0030791  )
        66           C   tau(  66) = (   0.7856602   0.0123849   0.0037320  )
        67           C   tau(  67) = (   0.2049692   0.3383661   0.0031253  )
        68           C   tau(  68) = (   0.1465177   0.1957511   0.0028386  )
        69           C   tau(  69) = (   0.1122044   0.4606027   0.0047714  )
        70           C   tau(  70) = (   0.0537541   0.3179868   0.0040646  )
        71           C   tau(  71) = (  -0.0390008   0.4402315   0.0053986  )
        72           C   tau(  72) = (   0.0767125   0.1412918   0.0029025  )
        73           C   tau(  73) = (  -0.0160446   0.2635267   0.0042056  )
        74           C   tau(  74) = (  -0.0744916   0.1209104   0.0035548  )
        75           C   tau(  75) = (  -0.1088163   0.3857677   0.0054510  )
        76           C   tau(  76) = (  -0.1672624   0.2431502   0.0051703  )
        77           C   tau(  77) = (   0.7742987   0.1005341   0.0046076  )
        78           C   tau(  78) = (  -0.2600186   0.3654016   0.0051679  )
        79           C   tau(  79) = (   0.6815276   0.2227829   0.0054823  )
        80           C   tau(  80) = (   0.6230866   0.0801569   0.0053855  )
        81           C   tau(  81) = (   0.1694752   0.0190522   0.0035694  )
        82           C   tau(  82) = (   0.5887732   0.3450252   0.0042687  )
        83           C   tau(  83) = (   0.5303207   0.2024204   0.0049373  )
        84           C   tau(  84) = (  -0.5039731   0.4672744   0.0029347  )
        85           C   tau(  85) = (   0.4375794   0.3246495   0.0032919  )
        86           C   tau(  86) = (   0.3791238   0.1820402   0.0038870  )
        87           C   tau(  87) = (   0.3448174   0.4468978   0.0030656  )
        88           C   tau(  88) = (   0.2863724   0.3042763   0.0028493  )
        89           C   tau(  89) = (   0.2279286   0.1616659   0.0030407  )
        90           C   tau(  90) = (   0.1936091   0.4265169   0.0038764  )
        91           C   tau(  91) = (   0.1351635   0.2838973   0.0032325  )
        92           C   tau(  92) = (   0.0423951   0.4061403   0.0048951  )
        93           C   tau(  93) = (   0.4718806   0.0598007   0.0053706  )
        94           C   tau(  94) = (   0.3206685   0.0394311   0.0045875  )

     number of k points=     4  gaussian smearing, width (Ry)=  0.1000
                       cart. coord. in units 2pi/alat
        k(    1) = (   0.0000000   0.0000000   0.0000000), wk =   0.5000000
        k(    2) = (   0.0000000  -1.0670305   0.0000000), wk =   0.5000000
        k(    3) = (  -0.5000000  -0.5572533   0.0000000), wk =   0.5000000
        k(    4) = (  -0.5000000  -1.6242837   0.0000000), wk =   0.5000000

     Dense  grid:  3824339 G-vectors     FFT dimensions: ( 200, 135, 432)

     Smooth grid:   967507 G-vectors     FFT dimensions: ( 125,  90, 270)

     Estimated max dynamical RAM per process >     782.12 MB

     Estimated total dynamical RAM >      24.44 GB

     Check: negative core charge=   -0.000002

     Initial potential from superposition of free atoms

     starting charge  379.99617, renormalised to  380.00000

     negative rho (up, down):  4.659E-03 0.000E+00


     %%%%%%%%%%%%%%%%%%%%%%%%%%%%%%%%%%%%%%%%%%%%%%%%%%%%%%%%%%%%%%%%%%%%%%%%
     %                                                                      %
     % You are using vdW-DF, which was implemented by the Thonhauser group. %
     % Please cite the following two papers that made this development      %
     % possible and the two reviews that describe the various versions:     %
     %                                                                      %
     %   T. Thonhauser et al., PRL 115, 136402 (2015).                      %
     %   T. Thonhauser et al., PRB 76, 125112 (2007).                       %
     %   K. Berland et al., Rep. Prog. Phys. 78, 066501 (2015).             %
     %   D.C. Langreth et al., J. Phys.: Condens. Matter 21, 084203 (2009). %
     %                                                                      %
     %                                                                      %
     % If you are calculating the stress with vdW-DF, please also cite:     %
     %                                                                      %
     %   R. Sabatini et al., J. Phys.: Condens. Matter 24, 424209 (2012).   %
     %                                                                      %
     %%%%%%%%%%%%%%%%%%%%%%%%%%%%%%%%%%%%%%%%%%%%%%%%%%%%%%%%%%%%%%%%%%%%%%%%


     Starting wfcs are  376 randomized atomic wfcs
     Checking if some PAW data can be deallocated... 

     total cpu time spent up to now is      147.0 secs

     Self-consistent Calculation

     iteration #  1     ecut=    40.00 Ry     beta= 0.40
     Davidson diagonalization with overlap
     ethr =  1.00E-02,  avg # of iterations =  2.0

     negative rho (up, down):  1.183E-03 0.000E+00

     total cpu time spent up to now is      478.4 secs

     total energy              =   -1817.37684442 Ry
     Harris-Foulkes estimate   =   -1819.56934000 Ry
     estimated scf accuracy    <      10.52117976 Ry

     iteration #  2     ecut=    40.00 Ry     beta= 0.40
     Davidson diagonalization with overlap
     ethr =  2.77E-03,  avg # of iterations =  1.0

     negative rho (up, down):  5.631E-03 0.000E+00

     total cpu time spent up to now is      690.8 secs

     total energy              =   -1814.61196091 Ry
     Harris-Foulkes estimate   =   -1817.55044919 Ry
     estimated scf accuracy    <       5.70894625 Ry

     iteration #  3     ecut=    40.00 Ry     beta= 0.40
     Davidson diagonalization with overlap
     ethr =  1.50E-03,  avg # of iterations =  3.8

     negative rho (up, down):  3.283E-03 0.000E+00

     total cpu time spent up to now is      983.5 secs

     total energy              =   -1815.25277700 Ry
     Harris-Foulkes estimate   =   -1815.33407227 Ry
     estimated scf accuracy    <       0.62742384 Ry

     iteration #  4     ecut=    40.00 Ry     beta= 0.40
     Davidson diagonalization with overlap
     c_bands:  2 eigenvalues not converged
     ethr =  1.65E-04,  avg # of iterations = 13.2

     negative rho (up, down):  1.479E-04 0.000E+00

     total cpu time spent up to now is     1253.1 secs

     total energy              =   -1815.24674132 Ry
     Harris-Foulkes estimate   =   -1815.29247155 Ry
     estimated scf accuracy    <       0.24658378 Ry

     iteration #  5     ecut=    40.00 Ry     beta= 0.40
     Davidson diagonalization with overlap
     ethr =  6.49E-05,  avg # of iterations =  6.0

     negative rho (up, down):  2.395E-05 0.000E+00

     total cpu time spent up to now is     1481.6 secs

     total energy              =   -1815.22004944 Ry
     Harris-Foulkes estimate   =   -1815.25736806 Ry
     estimated scf accuracy    <       0.13907971 Ry

     iteration #  6     ecut=    40.00 Ry     beta= 0.40
     Davidson diagonalization with overlap
     ethr =  3.66E-05,  avg # of iterations =  7.2

     negative rho (up, down):  1.990E-06 0.000E+00

     total cpu time spent up to now is     1702.9 secs

     total energy              =   -1815.20602322 Ry
     Harris-Foulkes estimate   =   -1815.22832547 Ry
     estimated scf accuracy    <       0.08617289 Ry

     iteration #  7     ecut=    40.00 Ry     beta= 0.40
     Davidson diagonalization with overlap
     ethr =  2.27E-05,  avg # of iterations = 10.5

     negative rho (up, down):  6.917E-03 0.000E+00

     total cpu time spent up to now is     1934.2 secs

     total energy              =   -1815.19589283 Ry
     Harris-Foulkes estimate   =   -1815.20915916 Ry
     estimated scf accuracy    <       0.06440740 Ry

     iteration #  8     ecut=    40.00 Ry     beta= 0.40
     Davidson diagonalization with overlap
     ethr =  1.69E-05,  avg # of iterations = 11.0

     negative rho (up, down):  1.205E-01 0.000E+00

     total cpu time spent up to now is     2169.0 secs

     total energy              =   -1815.19423444 Ry
     Harris-Foulkes estimate   =   -1815.19900670 Ry
     estimated scf accuracy    <       0.04074046 Ry

     iteration #  9     ecut=    40.00 Ry     beta= 0.40
     Davidson diagonalization with overlap
     ethr =  1.07E-05,  avg # of iterations = 10.0

     negative rho (up, down):  7.105E-02 0.000E+00

     total cpu time spent up to now is     2405.6 secs

     total energy              =   -1815.19511046 Ry
     Harris-Foulkes estimate   =   -1815.19660854 Ry
     estimated scf accuracy    <       0.02514109 Ry

     iteration # 10     ecut=    40.00 Ry     beta= 0.40
     Davidson diagonalization with overlap
     ethr =  6.62E-06,  avg # of iterations =  6.8

     negative rho (up, down):  1.449E-01 0.000E+00

     total cpu time spent up to now is     2631.5 secs

     total energy              =   -1815.19404166 Ry
     Harris-Foulkes estimate   =   -1815.19670585 Ry
     estimated scf accuracy    <       0.02206685 Ry

     iteration # 11     ecut=    40.00 Ry     beta= 0.40
     Davidson diagonalization with overlap
     ethr =  5.81E-06,  avg # of iterations =  6.8

     negative rho (up, down):  1.222E-01 0.000E+00

     total cpu time spent up to now is     2870.7 secs

     total energy              =   -1815.19117304 Ry
     Harris-Foulkes estimate   =   -1815.19538581 Ry
     estimated scf accuracy    <       0.01438276 Ry

     iteration # 12     ecut=    40.00 Ry     beta= 0.40
     Davidson diagonalization with overlap
     c_bands:  2 eigenvalues not converged
     c_bands:  1 eigenvalues not converged
     ethr =  3.78E-06,  avg # of iterations = 19.0

     negative rho (up, down):  1.623E-01 0.000E+00

     total cpu time spent up to now is     3116.9 secs

     total energy              =   -1815.18879328 Ry
     Harris-Foulkes estimate   =   -1815.19183376 Ry
     estimated scf accuracy    <       0.01131672 Ry

     iteration # 13     ecut=    40.00 Ry     beta= 0.40
     Davidson diagonalization with overlap
     ethr =  2.98E-06,  avg # of iterations = 14.2

     negative rho (up, down):  1.244E-01 0.000E+00

     total cpu time spent up to now is     3387.3 secs

     total energy              =   -1815.18803320 Ry
     Harris-Foulkes estimate   =   -1815.18926954 Ry
     estimated scf accuracy    <       0.00574423 Ry

     iteration # 14     ecut=    40.00 Ry     beta= 0.40
     Davidson diagonalization with overlap
     ethr =  1.51E-06,  avg # of iterations = 11.0

     negative rho (up, down):  9.680E-02 0.000E+00

     total cpu time spent up to now is     3602.7 secs

     total energy              =   -1815.18669611 Ry
     Harris-Foulkes estimate   =   -1815.18838353 Ry
     estimated scf accuracy    <       0.00383264 Ry

     iteration # 15     ecut=    40.00 Ry     beta= 0.40
     Davidson diagonalization with overlap
     ethr =  1.01E-06,  avg # of iterations = 11.2

     negative rho (up, down):  6.331E-02 0.000E+00

     total cpu time spent up to now is     3824.1 secs

     total energy              =   -1815.18608636 Ry
     Harris-Foulkes estimate   =   -1815.18685556 Ry
     estimated scf accuracy    <       0.00147043 Ry

     iteration # 16     ecut=    40.00 Ry     beta= 0.40
     Davidson diagonalization with overlap
     ethr =  3.87E-07,  avg # of iterations = 10.5

     negative rho (up, down):  2.911E-02 0.000E+00

     total cpu time spent up to now is     4025.7 secs

     total energy              =   -1815.18637244 Ry
     Harris-Foulkes estimate   =   -1815.18615930 Ry
     estimated scf accuracy    <       0.00074868 Ry

     iteration # 17     ecut=    40.00 Ry     beta= 0.40
     Davidson diagonalization with overlap
     ethr =  1.97E-07,  avg # of iterations =  9.2

     negative rho (up, down):  1.670E-02 0.000E+00

     total cpu time spent up to now is     4241.6 secs

     total energy              =   -1815.18633334 Ry
     Harris-Foulkes estimate   =   -1815.18641983 Ry
     estimated scf accuracy    <       0.00034723 Ry

     iteration # 18     ecut=    40.00 Ry     beta= 0.40
     Davidson diagonalization with overlap
     ethr =  9.14E-08,  avg # of iterations = 11.8

     negative rho (up, down):  1.087E-02 0.000E+00

     total cpu time spent up to now is     4511.4 secs

     total energy              =   -1815.18621284 Ry
     Harris-Foulkes estimate   =   -1815.18641562 Ry
     estimated scf accuracy    <       0.00027786 Ry

     iteration # 19     ecut=    40.00 Ry     beta= 0.40
     Davidson diagonalization with overlap
     c_bands:  1 eigenvalues not converged
     ethr =  7.31E-08,  avg # of iterations = 11.5

     negative rho (up, down):  9.254E-03 0.000E+00

     total cpu time spent up to now is     4750.5 secs

     total energy              =   -1815.18622467 Ry
     Harris-Foulkes estimate   =   -1815.18624437 Ry
     estimated scf accuracy    <       0.00008720 Ry

     iteration # 20     ecut=    40.00 Ry     beta= 0.40
     Davidson diagonalization with overlap
     ethr =  2.29E-08,  avg # of iterations =  3.2

     negative rho (up, down):  6.827E-03 0.000E+00

     total cpu time spent up to now is     4925.3 secs

     total energy              =   -1815.18624910 Ry
     Harris-Foulkes estimate   =   -1815.18622607 Ry
     estimated scf accuracy    <       0.00007019 Ry

     iteration # 21     ecut=    40.00 Ry     beta= 0.40
     Davidson diagonalization with overlap
     ethr =  1.85E-08,  avg # of iterations =  8.8

     negative rho (up, down):  7.903E-03 0.000E+00

     total cpu time spent up to now is     5114.5 secs

     total energy              =   -1815.18626673 Ry
     Harris-Foulkes estimate   =   -1815.18625345 Ry
     estimated scf accuracy    <       0.00003638 Ry

     iteration # 22     ecut=    40.00 Ry     beta= 0.40
     Davidson diagonalization with overlap
     ethr =  9.57E-09,  avg # of iterations =  4.2

     negative rho (up, down):  7.095E-03 0.000E+00

     total cpu time spent up to now is     5337.4 secs

     total energy              =   -1815.18625673 Ry
     Harris-Foulkes estimate   =   -1815.18627197 Ry
     estimated scf accuracy    <       0.00003510 Ry

     iteration # 23     ecut=    40.00 Ry     beta= 0.40
     Davidson diagonalization with overlap
     ethr =  9.24E-09,  avg # of iterations =  2.2

     negative rho (up, down):  6.141E-03 0.000E+00

     total cpu time spent up to now is     5511.2 secs

     total energy              =   -1815.18624754 Ry
     Harris-Foulkes estimate   =   -1815.18625852 Ry
     estimated scf accuracy    <       0.00001201 Ry

     iteration # 24     ecut=    40.00 Ry     beta= 0.40
     Davidson diagonalization with overlap
     ethr =  3.16E-09,  avg # of iterations =  3.5

     negative rho (up, down):  5.606E-03 0.000E+00

     total cpu time spent up to now is     5731.6 secs

     total energy              =   -1815.18624980 Ry
     Harris-Foulkes estimate   =   -1815.18624935 Ry
     estimated scf accuracy    <       0.00000403 Ry

     iteration # 25     ecut=    40.00 Ry     beta= 0.40
     Davidson diagonalization with overlap
     ethr =  1.06E-09,  avg # of iterations =  2.0

     negative rho (up, down):  5.504E-03 0.000E+00

     total cpu time spent up to now is     5903.4 secs

     total energy              =   -1815.18624830 Ry
     Harris-Foulkes estimate   =   -1815.18625001 Ry
     estimated scf accuracy    <       0.00000247 Ry

     iteration # 26     ecut=    40.00 Ry     beta= 0.40
     Davidson diagonalization with overlap
     ethr =  6.51E-10,  avg # of iterations =  2.2

     negative rho (up, down):  5.162E-03 0.000E+00

     total cpu time spent up to now is     6091.1 secs

     total energy              =   -1815.18625091 Ry
     Harris-Foulkes estimate   =   -1815.18624847 Ry
     estimated scf accuracy    <       0.00000102 Ry

     iteration # 27     ecut=    40.00 Ry     beta= 0.40
     Davidson diagonalization with overlap
     ethr =  2.69E-10,  avg # of iterations =  2.0

     negative rho (up, down):  4.848E-03 0.000E+00

     total cpu time spent up to now is     6260.8 secs

     End of self-consistent calculation

          k = 0.0000 0.0000 0.0000 (121045 PWs)   bands (ev):

   -24.6576 -22.1654 -22.0656 -21.3912 -21.3067 -21.2941 -21.2216 -21.2066
   -21.1847 -21.1311 -20.9345 -20.5486 -20.4828 -20.4624 -20.3162 -20.2772
   -20.2484 -20.1975 -19.7967 -19.2793 -18.8187 -18.8078 -18.7143 -18.5199
   -18.4927 -18.4837 -18.3982 -18.2914 -18.1392 -18.1367 -17.9858 -17.9546
   -17.9159 -17.9071 -17.8302 -17.7617 -17.7488 -17.7252 -17.6166 -17.5265
   -17.5127 -17.4768 -17.3842 -17.0010 -15.9498 -15.9441 -15.8832 -15.7311
   -14.8982 -14.8930 -14.8571 -14.7787 -14.7052 -14.7001 -14.6465 -14.5933
   -14.1826 -14.1794 -14.1203 -14.0965 -14.0770 -14.0714 -14.0264 -13.9613
   -13.7657 -13.7615 -13.7200 -13.6644 -13.5991 -13.5880 -13.5541 -13.4796
   -12.5024 -12.5015 -12.4566 -12.4472 -12.3681 -12.3596 -12.3385 -12.2812
   -11.4348 -11.4308 -11.4097 -11.3896 -10.9590 -10.9575 -10.9286 -10.9281
   -10.4749 -10.4488 -10.3751 -10.3716 -10.3421 -10.0796 -10.0071 -10.0061
    -9.9777  -9.9440  -9.9246  -9.8911  -9.8902  -9.7269  -9.4833  -9.4763
    -9.4371  -9.4320  -9.3639  -9.3629  -9.3482  -9.3346  -9.3305  -9.3115
    -9.3032  -9.2655  -9.1319  -9.1116  -9.1009  -9.0957  -8.9402  -8.7738
    -8.7629  -8.7242  -8.6533  -8.6382  -8.6282  -8.6244  -8.5436  -8.5259
    -8.5241  -8.5108  -8.4737  -8.4413  -8.2953  -8.2502  -8.2483  -8.2300
    -8.1976  -8.1810  -8.0613  -8.0092  -8.0057  -7.9869  -7.9447  -7.8004
    -7.6701  -7.6281  -7.4343  -7.3729  -7.3000  -7.2987  -7.2607  -7.2338
    -7.2332  -7.2193  -7.1890  -6.6666  -6.5570  -6.3062  -6.2884  -6.2443
    -6.0298  -6.0035  -5.9291  -5.8480  -5.8216  -5.7117  -5.7106  -5.6478
    -5.6014  -5.5865  -5.5643  -5.5487  -5.4930  -5.4435  -5.3837  -5.2370
    -5.1918  -5.1215  -5.1144  -5.1077  -4.8289  -4.7113  -4.6423  -4.5090
    -3.8974  -3.7254  -3.5142  -3.4687  -3.3926  -3.0593  -2.3817  -1.8409
    -1.5734  -1.5542  -1.1115  -0.7289  -0.2561  -0.2132  -0.1510  -0.1456
     0.0765   0.0811   0.1300   0.1997   0.2789   0.3324   0.3462   0.3815
     0.3896   0.5663   0.6647   0.7438   0.8291   0.9378   1.0965   1.1348
     1.2256   1.5414   1.5543   1.5567   1.5923   1.6130   1.6715   1.6765
     1.7827   1.9401   2.0281   2.1581

          k = 0.0000-1.0670 0.0000 (120926 PWs)   bands (ev):

   -24.6574 -21.9260 -21.7395 -21.7198 -21.6820 -21.6685 -21.6131 -21.5641
   -21.1946 -20.4421 -20.1075 -20.0973 -19.9908 -19.9510 -19.9476 -19.9436
   -19.9323 -19.8861 -19.8432 -19.8256 -19.8022 -19.7856 -19.7443 -19.7063
   -19.1540 -18.8612 -18.4669 -18.4639 -18.3147 -18.2415 -18.0124 -18.0088
   -17.8189 -17.7240 -17.0070 -17.0029 -16.9065 -16.8942 -16.8364 -16.8071
   -16.7603 -16.7487 -16.6737 -16.4547 -16.3916 -16.3805 -16.3372 -16.2251
   -15.8151 -15.6363 -15.2460 -15.2420 -15.1880 -15.1416 -14.9663 -14.9624
   -14.8879 -14.7795 -14.4838 -14.4799 -14.4322 -14.3922 -14.3916 -14.3803
   -14.3371 -14.2893 -12.6803 -12.6752 -12.6465 -12.6227 -11.9510 -11.9433
   -11.9248 -11.8968 -11.7608 -11.7375 -11.7283 -11.6413 -11.5165 -11.4714
   -11.4523 -11.4409 -11.2462 -11.2236 -11.2129 -11.1774 -11.1017 -11.1009
   -11.0647 -11.0595 -11.0196 -11.0079 -10.9989 -10.9968 -10.7521 -10.7512
   -10.7093 -10.6975 -10.0087  -9.9981  -9.9654  -9.9590  -9.9549  -9.9365
    -9.8916  -9.8200  -9.5818  -9.5688  -9.5675  -9.5161  -9.3145  -9.2679
    -9.2292  -9.1905  -9.1144  -9.0993  -9.0951  -9.0730  -9.0400  -9.0200
    -8.8190  -8.7578  -8.7509  -8.7426  -8.4759  -8.3631  -8.3220  -8.2957
    -8.2941  -8.2557  -8.2056  -8.2046  -8.1624  -8.0622  -8.0240  -7.8958
    -7.8739  -7.8381  -7.8084  -7.6744  -7.5778  -7.5600  -7.4714  -7.4455
    -7.4428  -7.4368  -7.3131  -7.3052  -7.2364  -7.2246  -7.1189  -7.0887
    -7.0598  -7.0583  -7.0125  -6.9881  -6.6495  -6.5827  -6.5371  -6.5357
    -6.5239  -6.4870  -6.4630  -6.4613  -6.4003  -6.1683  -6.1153  -5.8700
    -5.8519  -5.7122  -5.5833  -5.4564  -5.2912  -5.0071  -4.9582  -4.9367
    -4.8187  -4.8055  -4.6943  -4.6655  -4.4853  -4.3308  -4.1072  -4.0844
    -4.0031  -3.9901  -3.7894  -3.7277  -3.5574  -2.9531  -2.6442  -1.8639
    -1.1736  -1.1570  -1.0120  -0.9525  -0.9209  -0.7841  -0.7081  -0.6843
    -0.6546  -0.5227  -0.3799  -0.3192  -0.1187  -0.0192   0.0858   0.3099
     0.6527   0.8108   0.9583   0.9710   1.0360   1.0492   1.1302   1.1841
     1.5176   1.5657   1.6238   1.8111   1.9718   2.1412   2.2008   2.2155
     2.2809   2.2895   2.5264   2.5358

          k =-0.5000-0.5573 0.0000 (120880 PWs)   bands (ev):

   -24.6575 -22.0085 -21.9142 -21.8887 -21.6985 -21.1926 -21.1233 -21.1072
   -21.0222 -21.0154 -20.9583 -20.9465 -20.6093 -20.1450 -20.0733 -20.0455
   -19.9735 -19.4160 -19.3988 -19.3393 -19.2091 -19.1194 -19.0876 -19.0708
   -18.9782 -18.8073 -18.6961 -18.6859 -18.5711 -18.5117 -18.4854 -18.4578
   -18.2806 -17.8472 -17.1920 -17.1856 -17.1038 -17.0388 -16.9965 -16.7833
   -16.7748 -16.7504 -16.7056 -16.6491 -15.8177 -15.7764 -15.7726 -15.7584
   -15.6918 -15.6439 -15.5787 -15.5761 -15.4910 -15.3274 -14.7693 -14.7688
   -14.7194 -14.6977 -14.6913 -14.6697 -14.6335 -14.5284 -13.3366 -13.3256
   -13.2941 -13.2316 -12.9841 -12.9776 -12.9459 -12.9375 -12.9368 -12.8965
   -12.8955 -12.8736 -12.5116 -12.5078 -12.4699 -12.4478 -11.7411 -11.7326
   -11.7089 -11.7040 -11.1674 -11.1496 -11.1179 -11.1144 -10.6088 -10.5743
   -10.5696 -10.5203 -10.4272 -10.3912 -10.3803 -10.3690 -10.2067 -10.1424
    -9.9677  -9.8882  -9.8842  -9.8361  -9.6408  -9.6369  -9.6209  -9.6149
    -9.5828  -9.5663  -9.5474  -9.5455  -9.4736  -9.4517  -9.3300  -9.2934
    -9.2689  -9.2679  -9.2503  -9.2228  -9.1721  -9.1288  -9.1275  -9.1169
    -9.0635  -9.0491  -8.9303  -8.9043  -8.8965  -8.8343  -8.8308  -8.8067
    -8.5847  -8.5445  -8.5283  -8.4254  -8.4059  -8.4054  -8.3413  -8.3263
    -8.2569  -8.0032  -7.8595  -7.7202  -7.4059  -7.3740  -7.3482  -7.3469
    -7.3263  -7.3132  -7.3128  -7.2743  -7.2529  -7.1816  -7.0629  -6.9606
    -6.7982  -6.7650  -6.5976  -6.5515  -6.5510  -6.5387  -6.5120  -6.4616
    -6.4019  -6.3399  -6.2523  -6.2202  -6.1555  -6.1200  -6.1190  -6.1114
    -6.0462  -5.9246  -5.9119  -5.7411  -5.7016  -5.2969  -5.0678  -5.0029
    -4.8901  -4.8178  -4.7346  -4.6779  -4.6337  -4.5877  -4.4858  -3.9721
    -3.7394  -3.6339  -3.2984  -3.2235  -3.0631  -3.0087  -2.2777  -2.1095
    -1.8916  -1.8695  -1.4719  -1.2656  -0.8564  -0.8294  -0.8102  -0.5384
    -0.4797  -0.3711  -0.3271  -0.2082   0.0474   0.7021   0.7188   0.9607
     1.0023   1.0127   1.1360   1.1642   1.2606   1.3161   1.3597   1.4909
     1.5741   1.6332   1.7892   1.7938   1.8026   1.8104   1.9404   1.9430
     1.9531   1.9575   2.1824   2.1905

          k =-0.5000-1.6243 0.0000 (120890 PWs)   bands (ev):

   -24.6575 -22.0423 -21.9321 -21.9101 -21.6527 -21.2137 -21.0693 -21.0485
   -20.9608 -20.9577 -20.9389 -20.8447 -20.5687 -20.3247 -20.2443 -20.2279
   -19.9373 -19.6371 -19.5084 -19.4929 -19.3963 -19.1911 -19.1752 -19.1099
   -18.8903 -18.7254 -18.4046 -18.3959 -18.3141 -18.2187 -18.1903 -18.1724
   -18.0236 -17.8713 -17.0611 -17.0588 -17.0559 -17.0521 -16.9809 -16.9596
   -16.9195 -16.8733 -16.8039 -16.6995 -16.6956 -16.6654 -16.5995 -16.1647
   -15.8185 -15.7622 -15.4266 -15.4220 -15.3793 -15.3264 -14.1707 -14.1650
   -14.1281 -14.0848 -14.0217 -14.0180 -13.9903 -13.9742 -13.9707 -13.9329
   -13.9206 -13.8262 -13.0634 -13.0582 -13.0306 -12.9971 -12.9509 -12.9466
   -12.9017 -12.8652 -11.9519 -11.9476 -11.9173 -11.9034 -11.8794 -11.8750
   -11.8488 -11.8000 -11.6762 -11.6734 -11.6464 -11.6354 -10.9489 -10.9424
   -10.9269 -10.8684 -10.5216 -10.4706 -10.4587 -10.4504 -10.3399 -10.3340
   -10.3237 -10.2629 -10.2350 -10.1553  -9.5724  -9.4952  -9.4833  -9.3864
    -9.1992  -9.1782  -9.1456  -9.1376  -9.1184  -9.1178  -9.0204  -8.9962
    -8.9880  -8.9721  -8.9579  -8.9545  -8.9542  -8.9524  -8.9387  -8.9141
    -8.8539  -8.8472  -8.8444  -8.8394  -8.8385  -8.8206  -8.8018  -8.7816
    -8.6173  -8.5197  -8.4783  -8.4774  -8.4361  -8.4179  -8.3895  -8.3224
    -8.2196  -8.1787  -7.8977  -7.8592  -7.8266  -7.8263  -7.7004  -7.6312
    -7.5799  -7.4718  -7.4645  -7.4609  -7.4413  -7.3371  -7.2584  -7.0698
    -6.9910  -6.8474  -6.7041  -6.6153  -6.4510  -6.4497  -6.4399  -6.3696
    -6.3651  -6.2709  -6.2079  -6.1390  -6.0993  -6.0984  -6.0714  -5.9010
    -5.8389  -5.7155  -5.5705  -5.4429  -5.0948  -5.0235  -5.0128  -4.8808
    -4.7881  -4.7291  -4.6597  -4.6163  -4.5775  -4.4942  -4.4486  -4.3613
    -4.3314  -4.2490  -4.1925  -3.8224  -3.6794  -3.3350  -2.3567  -1.5246
    -0.9826  -0.9506  -0.7703  -0.6831  -0.6140  -0.6062  -0.5920  -0.5431
    -0.4850  -0.4577  -0.3200  -0.2397   0.0844   0.1040   0.5692   0.6126
     0.6733   0.6894   0.7024   0.7193   0.9125   1.0530   1.1355   1.3620
     1.4146   1.5870   1.6682   1.8801   1.8868   1.9080   1.9145   1.9177
     2.0388   2.0502   2.1533   2.2372

     the Fermi energy is    -2.5831 ev

!    total energy              =   -1815.18625415 Ry
     Harris-Foulkes estimate   =   -1815.18625097 Ry
     estimated scf accuracy    <       0.00000039 Ry

     total all-electron energy =     -7348.581409 Ry

     The total energy is the sum of the following terms:

     one-electron contribution =  -31094.93099821 Ry
     hartree contribution      =   15618.61332341 Ry
     xc contribution           =    -455.17948864 Ry
     ewald contribution        =   14726.91633079 Ry
     one-center paw contrib.   =    -610.12349621 Ry
     smearing contrib. (-TS)   =      -0.48192528 Ry

     convergence has been achieved in  27 iterations

     negative rho (up, down):  4.848E-03 0.000E+00

     Forces acting on atoms (cartesian axes, Ry/au):

     atom    1 type  1   force =    -0.00042798    0.00216501    0.00449110
     atom    2 type  1   force =     0.00028259   -0.00142629   -0.00118662
     atom    3 type  2   force =     0.00003231   -0.00113887    0.00013746
     atom    4 type  2   force =    -0.00258129   -0.00048045    0.00130211
     atom    5 type  2   force =     0.00006544   -0.00081539    0.00131431
     atom    6 type  2   force =    -0.00021391    0.00017913   -0.00110430
     atom    7 type  2   force =    -0.00014788    0.00005739    0.00232131
     atom    8 type  2   force =     0.00040991   -0.00072526   -0.00042659
     atom    9 type  2   force =    -0.00020960    0.00028581    0.00091035
     atom   10 type  2   force =    -0.00043530   -0.00067183   -0.00096734
     atom   11 type  2   force =     0.00114362    0.00042793    0.00094020
     atom   12 type  2   force =     0.00135646   -0.00123114    0.00013091
     atom   13 type  2   force =    -0.00428172   -0.00379075    0.00048478
     atom   14 type  2   force =    -0.00882760   -0.00690633   -0.00012722
     atom   15 type  2   force =     0.00443284    0.00590672   -0.00150506
     atom   16 type  2   force =    -0.00108018    0.00466397    0.00039625
     atom   17 type  2   force =    -0.00857106   -0.00567755   -0.00114485
     atom   18 type  2   force =     0.01764141    0.01613464    0.03874223
     atom   19 type  2   force =    -0.00080417   -0.02669120   -0.01563689
     atom   20 type  2   force =     0.00698019    0.00352455   -0.00096703
     atom   21 type  2   force =    -0.02509047    0.00700665   -0.01369660
     atom   22 type  2   force =    -0.00550159   -0.00356572    0.00101268
     atom   23 type  2   force =     0.00405690   -0.00203461   -0.00257835
     atom   24 type  2   force =    -0.00036134    0.00093118    0.00071068
     atom   25 type  2   force =     0.00027287   -0.00016455    0.00184113
     atom   26 type  2   force =     0.00268873    0.00285038    0.00007042
     atom   27 type  2   force =     0.00049206   -0.00058414    0.00087827
     atom   28 type  2   force =    -0.00039231    0.00052941    0.00140177
     atom   29 type  2   force =     0.00017804   -0.00014662    0.00201966
     atom   30 type  2   force =     0.00001875   -0.00020952   -0.00102630
     atom   31 type  2   force =     0.00060977   -0.00368986    0.00024755
     atom   32 type  2   force =    -0.00047101    0.00010880   -0.00025048
     atom   33 type  2   force =    -0.00022620   -0.00012460    0.00047201
     atom   34 type  2   force =    -0.00132479    0.00085502   -0.00000162
     atom   35 type  2   force =     0.00088789    0.00003993    0.00103109
     atom   36 type  2   force =     0.00068093   -0.00115113    0.00120940
     atom   37 type  2   force =    -0.00320641    0.00201551   -0.00068635
     atom   38 type  2   force =     0.00503189    0.00416561   -0.00031961
     atom   39 type  2   force =     0.03190115   -0.00824384   -0.01734437
     atom   40 type  2   force =    -0.00507960   -0.00299409   -0.00156628
     atom   41 type  2   force =    -0.00049094    0.03136995   -0.01584984
     atom   42 type  2   force =    -0.02115318   -0.01660227    0.02647863
     atom   43 type  2   force =     0.00751909    0.00626854   -0.00057464
     atom   44 type  2   force =    -0.00423692   -0.00549180   -0.00323769
     atom   45 type  2   force =     0.00877358    0.00563970    0.00037440
     atom   46 type  2   force =     0.00004290   -0.00130162    0.00087645
     atom   47 type  2   force =     0.00144990   -0.00006113    0.00264904
     atom   48 type  2   force =    -0.00088403   -0.00036552   -0.00003845
     atom   49 type  2   force =    -0.00028038    0.00001879   -0.00000089
     atom   50 type  2   force =    -0.00042481    0.00006680    0.00045951
     atom   51 type  2   force =    -0.00026922   -0.00014390   -0.00036330
     atom   52 type  2   force =    -0.00008834   -0.00001431   -0.00011016
     atom   53 type  2   force =    -0.00026527    0.00006413   -0.00054958
     atom   54 type  2   force =    -0.00038558   -0.00002243   -0.00079806
     atom   55 type  2   force =    -0.00023799   -0.00035493   -0.00063647
     atom   56 type  2   force =    -0.00017661   -0.00012813   -0.00046805
     atom   57 type  2   force =     0.00006939    0.00038795   -0.00095599
     atom   58 type  2   force =     0.00002986   -0.00050152   -0.00072983
     atom   59 type  2   force =    -0.00012457   -0.00010036    0.00026877
     atom   60 type  2   force =    -0.00020910    0.00000528   -0.00021077
     atom   61 type  2   force =    -0.00065942    0.00054909   -0.00051878
     atom   62 type  2   force =    -0.00021482   -0.00022615   -0.00049617
     atom   63 type  2   force =    -0.00017607    0.00001994    0.00030708
     atom   64 type  2   force =    -0.00005595   -0.00010818    0.00003245
     atom   65 type  2   force =    -0.00034775    0.00025838   -0.00002865
     atom   66 type  2   force =    -0.00028302    0.00010108    0.00024767
     atom   67 type  2   force =     0.00005166    0.00008302    0.00058917
     atom   68 type  2   force =     0.00004738   -0.00030812    0.00062062
     atom   69 type  2   force =    -0.00022692   -0.00018442    0.00001292
     atom   70 type  2   force =    -0.00012733    0.00024607    0.00069506
     atom   71 type  2   force =    -0.00034803   -0.00009517   -0.00025292
     atom   72 type  2   force =     0.00025760   -0.00010988    0.00016253
     atom   73 type  2   force =    -0.00029476   -0.00000114    0.00032506
     atom   74 type  2   force =    -0.00005556    0.00025549   -0.00010425
     atom   75 type  2   force =     0.00036243    0.00016798   -0.00066301
     atom   76 type  2   force =     0.00036632    0.00020100   -0.00062077
     atom   77 type  2   force =    -0.00005075    0.00031376   -0.00062360
     atom   78 type  2   force =     0.00015852    0.00003166   -0.00086923
     atom   79 type  2   force =     0.00037163    0.00015554   -0.00110960
     atom   80 type  2   force =     0.00027189    0.00054130   -0.00096149
     atom   81 type  2   force =     0.00009088   -0.00003099   -0.00052853
     atom   82 type  2   force =     0.00036113    0.00013120   -0.00087109
     atom   83 type  2   force =     0.00059943   -0.00027329   -0.00024535
     atom   84 type  2   force =     0.00011973   -0.00029521   -0.00036857
     atom   85 type  2   force =    -0.00004509    0.00026544   -0.00056705
     atom   86 type  2   force =     0.00002712   -0.00012613   -0.00063297
     atom   87 type  2   force =     0.00014801   -0.00016332   -0.00029185
     atom   88 type  2   force =     0.00010376    0.00005876   -0.00001402
     atom   89 type  2   force =     0.00002197   -0.00003528   -0.00006749
     atom   90 type  2   force =     0.00001329    0.00009993   -0.00022346
     atom   91 type  2   force =     0.00012823    0.00031400    0.00108162
     atom   92 type  2   force =     0.00017760    0.00025093   -0.00030503
     atom   93 type  2   force =     0.00014584   -0.00007986   -0.00104323
     atom   94 type  2   force =     0.00047389   -0.00012450   -0.00077991

     Total force =     0.094343     Total SCF correction =     0.000439

     BFGS Geometry Optimization

     number of scf cycles    =   1
     number of bfgs steps    =   0

     energy   new            =   -1815.1862541503 Ry

     new trust radius        =       0.0455247877 bohr
     new conv_thr            =       0.0000010000 Ry


ATOMIC_POSITIONS (crystal)
O        0.698564822   0.392314694   0.153628914
O        0.388869281   0.565532168   0.153543065
C        0.323488260   0.839275767   0.103107899
C        0.192948260   0.056639947   0.103388728
C        0.234123207   0.313279964   0.108302967
C        0.018637058   0.012214771   0.103776334
C        0.278675540   0.579399257   0.107557082
C        0.062136199   0.273686153   0.105386660
C        0.844981486   0.969405631   0.104387761
C        0.106027458   0.535396246   0.102710507
C        0.889043783   0.231238424   0.103012535
C        0.671854291   0.927336986   0.105425396
C        0.149410439   0.795837120   0.101741078
C        0.931621106   0.491113157   0.101437152
C        0.715233466   0.187703198   0.102422750
C        0.498212535   0.883730547   0.105769859
C        0.975089082   0.751670703   0.101783052
C        0.759263436   0.448837084   0.101936401
C        0.539862630   0.141728703   0.102040090
C        0.802005024   0.708679578   0.102381980
C        0.583652325   0.404790302   0.102324032
C        0.366702974   0.099942005   0.102359061
C        0.627971267   0.664756014   0.105514176
C        0.411094542   0.361860650   0.106071492
C        0.456824903   0.624805526   0.115653616
C        0.236726860   0.984234395   0.102300201
C        0.279303361   0.244309966   0.106158084
C        0.062497150   0.940271599   0.102908379
C        0.320675946   0.503466357   0.115584960
C        0.105530735   0.200258035   0.105812609
C        0.888299697   0.896156322   0.103432958
C        0.149514656   0.462829472   0.104931303
C        0.932444100   0.158293922   0.104224527
C        0.715295771   0.854104640   0.105530726
C        0.193151861   0.723329894   0.102317133
C        0.975671072   0.419020304   0.102130583
C        0.758756125   0.115554239   0.103261144
C        0.019479183   0.679978055   0.101532263
C        0.802434726   0.374745222   0.101201996
C        0.584090268   0.070775832   0.103109699
C        0.846245717   0.638050368   0.101309875
C        0.626288445   0.330245291   0.102164821
C        0.410877264   0.027958077   0.102362870
C        0.670975894   0.591845418   0.103124906
C        0.454314512   0.288762643   0.103244795
C        0.498712802   0.548340689   0.108168131
C        0.543308017   0.814469145   0.107861965
C        0.366309535   0.766011030   0.105675122
C        0.321212260   0.156885610   0.001655230    0   0   0
C        0.190768100   0.374254910   0.001552990    0   0   0
C        0.234243470   0.635131920   0.002312530    0   0   0
C        0.016846530   0.330773110   0.002032650    0   0   0
C        0.277723170   0.896010930   0.002379760    0   0   0
C        0.060331320   0.591658670   0.002491920    0   0   0
C        0.842941550   0.287314450   0.002424820    0   0   0
C        0.103815610   0.852542070   0.001984390    0   0   0
C        0.886419290   0.548185310   0.002293790    0   0   0
C        0.669026660   0.243839540   0.002463130    0   0   0
C        0.147299760   0.113406210   0.001333400    0   0   0
C        0.929905030   0.809054770   0.001531610    0   0   0
C        0.712503040   0.504694910   0.001830000    0   0   0
C        0.495119600   0.200371840   0.002131170    0   0   0
C        0.973381210   0.069918610   0.001356890    0   0   0
C        0.755993580   0.765576760   0.001306650    0   0   0
C        0.538595990   0.461216140   0.001406940    0   0   0
C        0.799463290   0.026430140   0.001705300    0   0   0
C        0.582080410   0.722093790   0.001428040    0   0   0
C        0.364683660   0.417744870   0.001297060    0   0   0
C        0.625549080   0.982954240   0.002180210    0   0   0
C        0.408152470   0.678603210   0.001857240    0   0   0
C        0.451640100   0.939480860   0.002466810    0   0   0
C        0.234183110   0.301525320   0.001326260    0   0   0
C        0.277657590   0.562381980   0.001921710    0   0   0
C        0.060263910   0.258030270   0.001624330    0   0   0
C        0.321124300   0.823251770   0.002490750    0   0   0
C        0.103730080   0.518897260   0.002362490    0   0   0
C        0.886344650   0.214546000   0.002105370    0   0   0
C        0.147223900   0.779789370   0.002361420    0   0   0
C        0.929820540   0.475432260   0.002505060    0   0   0
C        0.712421990   0.171059680   0.002460820    0   0   0
C        0.190709030   0.040658520   0.001630980    0   0   0
C        0.973306060   0.736304900   0.001950530    0   0   0
C        0.755919530   0.431977370   0.002256040    0   0   0
C        0.016807270   0.997192160   0.001340980    0   0   0
C        0.799403330   0.692821740   0.001504180    0   0   0
C        0.582008770   0.388484820   0.001776100    0   0   0
C        0.842887930   0.953707140   0.001400800    0   0   0
C        0.625490320   0.649344160   0.001301950    0   0   0
C        0.408106360   0.345004940   0.001389420    0   0   0
C        0.668964960   0.910213020   0.001771250    0   0   0
C        0.451568890   0.605854230   0.001477050    0   0   0
C        0.495041120   0.866728140   0.002236740    0   0   0
C        0.538528800   0.127618280   0.002454000    0   0   0
C        0.364614730   0.084148470   0.002096190    0   0   0



     Writing output data file CNT_ox.save/
     NEW-OLD atomic charge density approx. for the potential

     Check: negative core charge=   -0.000002

     negative rho (up, down):  4.849E-03 0.000E+00

     total cpu time spent up to now is     6375.8 secs

     Self-consistent Calculation

     iteration #  1     ecut=    40.00 Ry     beta= 0.40
     Davidson diagonalization with overlap
     ethr =  1.00E-06,  avg # of iterations =  5.2

     negative rho (up, down):  4.813E-03 0.000E+00

     total cpu time spent up to now is     6767.3 secs

     total energy              =   -1815.19094324 Ry
     Harris-Foulkes estimate   =   -1815.19079249 Ry
     estimated scf accuracy    <       0.00320026 Ry

     iteration #  2     ecut=    40.00 Ry     beta= 0.40
     Davidson diagonalization with overlap
     ethr =  8.42E-07,  avg # of iterations =  1.8

     negative rho (up, down):  4.813E-03 0.000E+00

     total cpu time spent up to now is     6937.7 secs

     total energy              =   -1815.19049282 Ry
     Harris-Foulkes estimate   =   -1815.19103092 Ry
     estimated scf accuracy    <       0.00126381 Ry

     iteration #  3     ecut=    40.00 Ry     beta= 0.40
     Davidson diagonalization with overlap
     ethr =  3.33E-07,  avg # of iterations =  3.2

     negative rho (up, down):  4.730E-03 0.000E+00

     total cpu time spent up to now is     7159.9 secs

     total energy              =   -1815.19072572 Ry
     Harris-Foulkes estimate   =   -1815.19076188 Ry
     estimated scf accuracy    <       0.00007352 Ry

     iteration #  4     ecut=    40.00 Ry     beta= 0.40
     Davidson diagonalization with overlap
     ethr =  1.93E-08,  avg # of iterations =  3.5

     negative rho (up, down):  4.705E-03 0.000E+00

     total cpu time spent up to now is     7398.5 secs

     total energy              =   -1815.19073494 Ry
     Harris-Foulkes estimate   =   -1815.19074837 Ry
     estimated scf accuracy    <       0.00003684 Ry

     iteration #  5     ecut=    40.00 Ry     beta= 0.40
     Davidson diagonalization with overlap
     ethr =  9.70E-09,  avg # of iterations =  2.2

     negative rho (up, down):  4.697E-03 0.000E+00

     total cpu time spent up to now is     7598.4 secs

     total energy              =   -1815.19073820 Ry
     Harris-Foulkes estimate   =   -1815.19073910 Ry
     estimated scf accuracy    <       0.00000219 Ry

     iteration #  6     ecut=    40.00 Ry     beta= 0.40
     Davidson diagonalization with overlap
     ethr =  5.77E-10,  avg # of iterations =  4.0

     negative rho (up, down):  4.852E-03 0.000E+00

     total cpu time spent up to now is     7831.0 secs

     End of self-consistent calculation

          k = 0.0000 0.0000 0.0000 (121045 PWs)   bands (ev):

   -24.6810 -22.1649 -22.0576 -21.3669 -21.3110 -21.2940 -21.2243 -21.2086
   -21.1978 -21.1334 -20.9517 -20.5498 -20.4849 -20.4636 -20.3258 -20.2845
   -20.2511 -20.2111 -19.8028 -19.3175 -18.8221 -18.8097 -18.7252 -18.5284
   -18.4946 -18.4861 -18.4017 -18.2965 -18.1412 -18.1384 -17.9941 -17.9628
   -17.9178 -17.9087 -17.8332 -17.7691 -17.7496 -17.7338 -17.6176 -17.5298
   -17.5117 -17.4810 -17.3689 -16.9920 -15.9520 -15.9459 -15.8897 -15.7304
   -14.8997 -14.8949 -14.8589 -14.7846 -14.7059 -14.7012 -14.6439 -14.5858
   -14.1851 -14.1808 -14.1253 -14.0926 -14.0818 -14.0728 -14.0362 -13.9679
   -13.7679 -13.7635 -13.7235 -13.6719 -13.6044 -13.5899 -13.5621 -13.4860
   -12.5046 -12.5036 -12.4622 -12.4546 -12.3669 -12.3612 -12.3342 -12.2791
   -11.4371 -11.4331 -11.4128 -11.3956 -10.9676 -10.9545 -10.9350 -10.9223
   -10.4801 -10.4514 -10.3806 -10.3734 -10.3593 -10.0791 -10.0088 -10.0079
    -9.9755  -9.9551  -9.9215  -9.8929  -9.8921  -9.7295  -9.4952  -9.4865
    -9.4427  -9.4343  -9.3657  -9.3645  -9.3426  -9.3363  -9.3283  -9.3157
    -9.3136  -9.2607  -9.1447  -9.1117  -9.1031  -9.0955  -8.9546  -8.7781
    -8.7692  -8.7265  -8.6618  -8.6479  -8.6300  -8.6275  -8.5360  -8.5264
    -8.5255  -8.4982  -8.4916  -8.4540  -8.2967  -8.2515  -8.2501  -8.2234
    -8.2002  -8.1814  -8.0740  -8.0110  -8.0075  -7.9855  -7.9469  -7.8079
    -7.6830  -7.6306  -7.4591  -7.3639  -7.3019  -7.3006  -7.2725  -7.2388
    -7.2348  -7.2290  -7.1593  -6.6739  -6.5652  -6.3097  -6.2768  -6.2552
    -6.0325  -6.0068  -5.9342  -5.8511  -5.8210  -5.7274  -5.7128  -5.6483
    -5.6037  -5.5883  -5.5639  -5.5557  -5.4974  -5.4437  -5.3959  -5.2408
    -5.1949  -5.1275  -5.1158  -5.1126  -4.8333  -4.7221  -4.6510  -4.5238
    -3.9197  -3.7385  -3.5286  -3.4748  -3.4111  -3.0799  -2.3333  -1.8371
    -1.5747  -1.5554  -1.1057  -0.7079  -0.2560  -0.2143  -0.1531  -0.1469
     0.0701   0.0861   0.1253   0.1968   0.2887   0.3255   0.3465   0.3777
     0.3873   0.5478   0.6732   0.7345   0.8313   0.9323   1.0883   1.1601
     1.2369   1.5441   1.5521   1.5539   1.5907   1.6167   1.6689   1.6736
     1.7951   1.9421   2.0266   2.1589

          k = 0.0000-1.0670 0.0000 (120926 PWs)   bands (ev):

   -24.6808 -21.8990 -21.7425 -21.7207 -21.6852 -21.6701 -21.6200 -21.5725
   -21.2035 -20.4240 -20.1109 -20.0992 -20.0018 -19.9554 -19.9527 -19.9471
   -19.9347 -19.8917 -19.8615 -19.8409 -19.8189 -19.7882 -19.7542 -19.7154
   -19.1528 -18.8774 -18.4689 -18.4660 -18.3215 -18.2603 -18.0136 -18.0107
   -17.8168 -17.7259 -17.0091 -17.0045 -16.9141 -16.8958 -16.8357 -16.7946
   -16.7634 -16.7502 -16.6865 -16.4491 -16.3903 -16.3821 -16.3237 -16.2383
   -15.8169 -15.6483 -15.2476 -15.2440 -15.1892 -15.1486 -14.9686 -14.9643
   -14.8984 -14.7819 -14.4856 -14.4814 -14.4321 -14.3945 -14.3935 -14.3791
   -14.3353 -14.2900 -12.6830 -12.6769 -12.6505 -12.6240 -11.9530 -11.9471
   -11.9269 -11.9121 -11.7582 -11.7392 -11.7285 -11.6390 -11.5152 -11.4824
   -11.4541 -11.4477 -11.2531 -11.2251 -11.2161 -11.1743 -11.1038 -11.1024
   -11.0678 -11.0623 -11.0291 -11.0124 -11.0015 -10.9993 -10.7545 -10.7532
   -10.7178 -10.7043 -10.0137 -10.0034  -9.9672  -9.9603  -9.9564  -9.9376
    -9.9001  -9.8228  -9.5787  -9.5706  -9.5684  -9.5159  -9.3210  -9.2754
    -9.2344  -9.1876  -9.1172  -9.1019  -9.0969  -9.0792  -9.0415  -9.0181
    -8.8276  -8.7705  -8.7527  -8.7496  -8.4854  -8.3678  -8.3189  -8.2973
    -8.2959  -8.2499  -8.2076  -8.2064  -8.1737  -8.0548  -8.0304  -7.8981
    -7.8809  -7.8456  -7.8050  -7.6825  -7.5826  -7.5629  -7.4737  -7.4483
    -7.4445  -7.4400  -7.3259  -7.3089  -7.2466  -7.2268  -7.1174  -7.0838
    -7.0616  -7.0600  -7.0134  -6.9921  -6.6774  -6.5733  -6.5393  -6.5376
    -6.5299  -6.4884  -6.4649  -6.4631  -6.4155  -6.1665  -6.1132  -5.8709
    -5.8504  -5.7130  -5.5876  -5.4588  -5.3053  -5.0104  -4.9724  -4.9437
    -4.8212  -4.8121  -4.6991  -4.6711  -4.4962  -4.3358  -4.1113  -4.0904
    -4.0058  -3.9924  -3.8046  -3.7526  -3.5869  -2.9546  -2.6301  -1.8452
    -1.1758  -1.1588  -1.0142  -0.9507  -0.9225  -0.7844  -0.6976  -0.6838
    -0.6558  -0.5217  -0.3805  -0.3142  -0.1078  -0.0171   0.0870   0.3163
     0.6542   0.8107   0.9557   0.9683   1.0335   1.0467   1.1281   1.1825
     1.5144   1.5601   1.6178   1.8086   1.9654   2.1558   2.2045   2.2215
     2.2845   2.2939   2.5286   2.5377

          k =-0.5000-0.5573 0.0000 (120880 PWs)   bands (ev):

   -24.6809 -21.9948 -21.9161 -21.8866 -21.7021 -21.1817 -21.1266 -21.1055
   -21.0289 -21.0213 -20.9741 -20.9515 -20.6129 -20.1417 -20.0802 -20.0469
   -19.9933 -19.4225 -19.4013 -19.3520 -19.2350 -19.1348 -19.0888 -19.0740
   -18.9754 -18.8278 -18.6986 -18.6880 -18.5818 -18.5175 -18.4871 -18.4624
   -18.2813 -17.8169 -17.1940 -17.1882 -17.1072 -17.0676 -16.9996 -16.7802
   -16.7773 -16.7388 -16.7104 -16.6443 -15.8195 -15.7786 -15.7746 -15.7595
   -15.6932 -15.6510 -15.5812 -15.5779 -15.5071 -15.3227 -14.7711 -14.7706
   -14.7199 -14.7002 -14.6942 -14.6745 -14.6334 -14.5288 -13.3376 -13.3275
   -13.2944 -13.2348 -12.9852 -12.9793 -12.9456 -12.9392 -12.9384 -12.9007
   -12.8977 -12.8723 -12.5118 -12.5108 -12.4652 -12.4588 -11.7491 -11.7364
   -11.7124 -11.7074 -11.1852 -11.1551 -11.1209 -11.1174 -10.6280 -10.5764
   -10.5726 -10.5267 -10.4238 -10.3998 -10.3819 -10.3766 -10.2103 -10.1445
    -9.9696  -9.8896  -9.8860  -9.8274  -9.6417  -9.6388  -9.6207  -9.6146
    -9.5857  -9.5689  -9.5490  -9.5477  -9.4803  -9.4556  -9.3304  -9.3079
    -9.2707  -9.2706  -9.2526  -9.2264  -9.1722  -9.1310  -9.1293  -9.1182
    -9.0754  -9.0557  -8.9214  -8.9026  -8.8958  -8.8399  -8.8326  -8.8227
    -8.5911  -8.5458  -8.5327  -8.4317  -8.4077  -8.4071  -8.3345  -8.3153
    -8.2591  -7.9983  -7.8715  -7.7211  -7.4122  -7.3911  -7.3498  -7.3484
    -7.3159  -7.3149  -7.3084  -7.2740  -7.2626  -7.1929  -7.0667  -6.9854
    -6.7998  -6.7856  -6.6058  -6.5543  -6.5533  -6.5494  -6.5118  -6.4696
    -6.4055  -6.3414  -6.2559  -6.2277  -6.1559  -6.1216  -6.1205  -6.1056
    -6.0380  -5.9288  -5.9158  -5.7444  -5.7086  -5.2996  -5.0680  -5.0099
    -4.8921  -4.8264  -4.7397  -4.6804  -4.6381  -4.6021  -4.4917  -3.9849
    -3.7517  -3.6668  -3.3110  -3.2365  -3.0672  -3.0166  -2.2520  -2.0986
    -1.8923  -1.8702  -1.4589  -1.2689  -0.8576  -0.8289  -0.8120  -0.5415
    -0.4799  -0.3740  -0.3220  -0.1989   0.0563   0.6997   0.7161   0.9636
     1.0034   1.0168   1.1364   1.1657   1.2565   1.3165   1.3708   1.4912
     1.5642   1.6412   1.7878   1.7909   1.7999   1.8076   1.9432   1.9466
     1.9509   1.9549   2.1719   2.1936

          k =-0.5000-1.6243 0.0000 (120890 PWs)   bands (ev):

   -24.6809 -22.0292 -21.9341 -21.9086 -21.6618 -21.1850 -21.0753 -21.0490
   -20.9780 -20.9603 -20.9407 -20.8568 -20.5804 -20.3276 -20.2465 -20.2299
   -19.9643 -19.6474 -19.5100 -19.4950 -19.3970 -19.1964 -19.1771 -19.1248
   -18.9093 -18.7386 -18.4075 -18.3975 -18.3220 -18.2221 -18.1915 -18.1743
   -18.0094 -17.8876 -17.0636 -17.0618 -17.0581 -17.0537 -16.9826 -16.9766
   -16.9229 -16.8816 -16.8056 -16.7036 -16.6956 -16.6639 -16.5675 -16.1732
   -15.8202 -15.7593 -15.4282 -15.4239 -15.3805 -15.3280 -14.1712 -14.1665
   -14.1247 -14.0813 -14.0246 -14.0205 -13.9935 -13.9783 -13.9761 -13.9418
   -13.9336 -13.8339 -13.0669 -13.0603 -13.0354 -13.0027 -12.9540 -12.9484
   -12.9051 -12.8667 -11.9520 -11.9508 -11.9151 -11.9115 -11.8803 -11.8766
   -11.8478 -11.7978 -11.6801 -11.6769 -11.6532 -11.6448 -10.9494 -10.9441
   -10.9258 -10.8648 -10.5306 -10.4742 -10.4605 -10.4534 -10.3407 -10.3356
   -10.3237 -10.2612 -10.2364 -10.1585  -9.5742  -9.4976  -9.4886  -9.3824
    -9.2186  -9.1703  -9.1455  -9.1215  -9.1202  -9.1173  -9.0345  -9.0176
    -9.0116  -8.9758  -8.9581  -8.9567  -8.9564  -8.9548  -8.9292  -8.9218
    -8.8738  -8.8490  -8.8477  -8.8445  -8.8407  -8.8335  -8.8179  -8.7831
    -8.6217  -8.5337  -8.4803  -8.4793  -8.4380  -8.4184  -8.3977  -8.3234
    -8.2179  -8.1869  -7.9083  -7.8565  -7.8283  -7.8281  -7.7116  -7.6192
    -7.5904  -7.4719  -7.4657  -7.4619  -7.4253  -7.3423  -7.2589  -7.0720
    -6.9936  -6.8508  -6.7072  -6.6158  -6.4527  -6.4515  -6.4436  -6.3769
    -6.3376  -6.2781  -6.2125  -6.1608  -6.1013  -6.1002  -6.0899  -5.9033
    -5.8372  -5.7181  -5.5671  -5.4448  -5.1008  -5.0464  -5.0149  -4.8866
    -4.7935  -4.7359  -4.6707  -4.6234  -4.5813  -4.4963  -4.4504  -4.3691
    -4.3373  -4.2606  -4.2002  -3.8346  -3.7014  -3.3735  -2.3032  -1.5228
    -0.9832  -0.9515  -0.7716  -0.6798  -0.6124  -0.6030  -0.5920  -0.5446
    -0.4857  -0.4458  -0.3234  -0.2335   0.0867   0.1056   0.5613   0.6136
     0.6708   0.6874   0.7002   0.7173   0.8887   1.0512   1.1654   1.3574
     1.4084   1.5902   1.6663   1.8781   1.8851   1.9100   1.9177   1.9209
     2.0365   2.0472   2.1474   2.2391

     the Fermi energy is    -2.5848 ev

!    total energy              =   -1815.19073614 Ry
     Harris-Foulkes estimate   =   -1815.19073873 Ry
     estimated scf accuracy    <       0.00000064 Ry

     total all-electron energy =     -7348.585891 Ry

     The total energy is the sum of the following terms:

     one-electron contribution =  -31094.26830218 Ry
     hartree contribution      =   15618.31437015 Ry
     xc contribution           =    -455.18578454 Ry
     ewald contribution        =   14726.54966611 Ry
     one-center paw contrib.   =    -610.12336855 Ry
     smearing contrib. (-TS)   =      -0.47731712 Ry

     convergence has been achieved in   6 iterations

     negative rho (up, down):  4.852E-03 0.000E+00

     Forces acting on atoms (cartesian axes, Ry/au):

     atom    1 type  1   force =     0.00048980    0.00308645   -0.00846766
     atom    2 type  1   force =     0.00027319   -0.00126222    0.00003100
     atom    3 type  2   force =    -0.00073158    0.00120041   -0.00013826
     atom    4 type  2   force =     0.00120597    0.00010419    0.00124537
     atom    5 type  2   force =     0.00022505   -0.00028748    0.00106025
     atom    6 type  2   force =     0.00002863   -0.00056363   -0.00078725
     atom    7 type  2   force =    -0.00018719   -0.00020933    0.00180171
     atom    8 type  2   force =    -0.00031200    0.00031092   -0.00045781
     atom    9 type  2   force =    -0.00012523   -0.00100799    0.00079143
     atom   10 type  2   force =    -0.00025559   -0.00001589   -0.00029888
     atom   11 type  2   force =    -0.00087354    0.00005405    0.00074351
     atom   12 type  2   force =    -0.00145302    0.00102191    0.00028082
     atom   13 type  2   force =     0.00318393    0.00241265    0.00087707
     atom   14 type  2   force =     0.01926454    0.00626461   -0.00258271
     atom   15 type  2   force =     0.00024802   -0.00851530   -0.00275231
     atom   16 type  2   force =     0.00185289   -0.00225986    0.00096042
     atom   17 type  2   force =     0.01102401    0.01551476   -0.00297462
     atom   18 type  2   force =    -0.00736629   -0.00852232    0.03811493
     atom   19 type  2   force =    -0.00206987    0.00544128   -0.00956903
     atom   20 type  2   force =    -0.00968241    0.00210128   -0.00231499
     atom   21 type  2   force =     0.00539343   -0.00392814   -0.00839523
     atom   22 type  2   force =     0.00785005    0.00535780    0.00132412
     atom   23 type  2   force =    -0.00210523    0.00122650   -0.00172892
     atom   24 type  2   force =     0.00178166   -0.00116201    0.00037770
     atom   25 type  2   force =     0.00074195    0.00033504    0.00149556
     atom   26 type  2   force =    -0.00426264   -0.00246509    0.00066241
     atom   27 type  2   force =    -0.00028396   -0.00011242    0.00128201
     atom   28 type  2   force =    -0.00107657   -0.00095341    0.00059828
     atom   29 type  2   force =    -0.00042067   -0.00081793    0.00162194
     atom   30 type  2   force =     0.00000555   -0.00016685   -0.00081841
     atom   31 type  2   force =    -0.00148862    0.00258395    0.00016221
     atom   32 type  2   force =     0.00036273   -0.00060819   -0.00005605
     atom   33 type  2   force =     0.00120539   -0.00074443    0.00055574
     atom   34 type  2   force =     0.00227673   -0.00101019   -0.00013792
     atom   35 type  2   force =    -0.00132283   -0.00085707    0.00078117
     atom   36 type  2   force =    -0.00101232    0.00031112    0.00059812
     atom   37 type  2   force =     0.00281970   -0.00201036   -0.00032852
     atom   38 type  2   force =    -0.00938694   -0.00640563    0.00024349
     atom   39 type  2   force =    -0.00965151    0.00408370   -0.00951472
     atom   40 type  2   force =     0.00782493   -0.00016120   -0.00275533
     atom   41 type  2   force =     0.00200756   -0.00636354   -0.00851470
     atom   42 type  2   force =     0.00967776    0.00765222    0.02410030
     atom   43 type  2   force =    -0.01064184   -0.01459035   -0.00260811
     atom   44 type  2   force =     0.00249776    0.00824532   -0.00408627
     atom   45 type  2   force =    -0.01684543   -0.00520676   -0.00123853
     atom   46 type  2   force =     0.00077840   -0.00000626    0.00043558
     atom   47 type  2   force =    -0.00077615    0.00119497    0.00215030
     atom   48 type  2   force =     0.00023509    0.00053027    0.00020769
     atom   49 type  2   force =    -0.00028426    0.00001946    0.00000127
     atom   50 type  2   force =    -0.00042790    0.00006615    0.00046317
     atom   51 type  2   force =    -0.00027059   -0.00014748   -0.00035796
     atom   52 type  2   force =    -0.00009126   -0.00000908   -0.00010371
     atom   53 type  2   force =    -0.00027855    0.00005143   -0.00053789
     atom   54 type  2   force =    -0.00039199   -0.00002753   -0.00078526
     atom   55 type  2   force =    -0.00024090   -0.00035110   -0.00063621
     atom   56 type  2   force =    -0.00017941   -0.00013162   -0.00045928
     atom   57 type  2   force =     0.00005599    0.00037631   -0.00093835
     atom   58 type  2   force =     0.00001791   -0.00049490   -0.00070112
     atom   59 type  2   force =    -0.00012079   -0.00009955    0.00027255
     atom   60 type  2   force =    -0.00020652    0.00000013   -0.00021723
     atom   61 type  2   force =    -0.00064667    0.00053514   -0.00047109
     atom   62 type  2   force =    -0.00021196   -0.00022258   -0.00049006
     atom   63 type  2   force =    -0.00017980    0.00002065    0.00031193
     atom   64 type  2   force =    -0.00005197   -0.00010513    0.00003731
     atom   65 type  2   force =    -0.00034338    0.00025644   -0.00004127
     atom   66 type  2   force =    -0.00028861    0.00010366    0.00025415
     atom   67 type  2   force =     0.00005233    0.00007838    0.00059557
     atom   68 type  2   force =     0.00004100   -0.00030315    0.00062451
     atom   69 type  2   force =    -0.00022182   -0.00018094    0.00002080
     atom   70 type  2   force =    -0.00012988    0.00025024    0.00070645
     atom   71 type  2   force =    -0.00035311   -0.00009683   -0.00025916
     atom   72 type  2   force =     0.00025908   -0.00010973    0.00016885
     atom   73 type  2   force =    -0.00029873   -0.00000041    0.00033048
     atom   74 type  2   force =    -0.00004970    0.00025832   -0.00010230
     atom   75 type  2   force =     0.00036926    0.00016680   -0.00066037
     atom   76 type  2   force =     0.00037296    0.00020061   -0.00062162
     atom   77 type  2   force =    -0.00004325    0.00031376   -0.00061770
     atom   78 type  2   force =     0.00017454    0.00004276   -0.00087438
     atom   79 type  2   force =     0.00038975    0.00016289   -0.00112618
     atom   80 type  2   force =     0.00026517    0.00053522   -0.00098234
     atom   81 type  2   force =     0.00009066   -0.00002479   -0.00051867
     atom   82 type  2   force =     0.00037260    0.00014340   -0.00088252
     atom   83 type  2   force =     0.00059230   -0.00027421   -0.00015413
     atom   84 type  2   force =     0.00012300   -0.00028703   -0.00036355
     atom   85 type  2   force =    -0.00004824    0.00026119   -0.00058321
     atom   86 type  2   force =     0.00003528   -0.00012617   -0.00064394
     atom   87 type  2   force =     0.00015189   -0.00015981   -0.00028373
     atom   88 type  2   force =     0.00009417    0.00005939   -0.00001754
     atom   89 type  2   force =     0.00001993   -0.00004039   -0.00005549
     atom   90 type  2   force =     0.00001353    0.00010465   -0.00022030
     atom   91 type  2   force =     0.00013240    0.00030628    0.00108675
     atom   92 type  2   force =     0.00017700    0.00024368   -0.00030008
     atom   93 type  2   force =     0.00015708   -0.00006758   -0.00107096
     atom   94 type  2   force =     0.00047814   -0.00011649   -0.00077313

     Total force =     0.071325     Total SCF correction =     0.001561

     number of scf cycles    =   2
     number of bfgs steps    =   1

     energy   old            =   -1815.1862541503 Ry
     energy   new            =   -1815.1907361383 Ry

     CASE: energy  _new < energy  _old

     new trust radius        =       0.0609989950 bohr
     new conv_thr            =       0.0000000381 Ry


ATOMIC_POSITIONS (crystal)
O        0.698734057   0.392623211   0.153539287
O        0.388806348   0.565383812   0.153533117
C        0.323484710   0.839314510   0.103106999
C        0.192932460   0.056627658   0.103419146
C        0.234103818   0.313226055   0.108330670
C        0.018616784   0.012181995   0.103754637
C        0.278659900   0.579386709   0.107604930
C        0.062129693   0.273678540   0.105375935
C        0.844941927   0.969345597   0.104407819
C        0.105995584   0.535367560   0.102697456
C        0.889047799   0.231259823   0.103032125
C        0.671843513   0.927359238   0.105430826
C        0.149442854   0.795853392   0.101758704
C        0.932179039   0.491275855   0.101396668
C        0.715136880   0.187339279   0.102367580
C        0.498269470   0.883760968   0.105787978
C        0.975747278   0.752542299   0.101727658
C        0.759385539   0.448892169   0.102857604
C        0.539408689   0.141021301   0.101756910
C        0.801969811   0.708973726   0.102338202
C        0.583354057   0.404798047   0.102075783
C        0.366981911   0.100177166   0.102388137
C        0.627981029   0.664759876   0.105465179
C        0.411123775   0.361816121   0.106083490
C        0.456863829   0.624822628   0.115692581
C        0.236605753   0.984175820   0.102310917
C        0.279286654   0.244278004   0.106185338
C        0.062429592   0.940225442   0.102929809
C        0.320631786   0.503402116   0.115627419
C        0.105520590   0.200237564   0.105791121
C        0.888278786   0.896188925   0.103437605
C        0.149497422   0.462790638   0.104928249
C        0.932449617   0.158235817   0.104237143
C        0.715327014   0.854067796   0.105528609
C        0.193093791   0.723270519   0.102338095
C        0.975637300   0.418995238   0.102150321
C        0.758756991   0.115493793   0.103250109
C        0.019113846   0.679692906   0.101533167
C        0.802701133   0.374697807   0.100904648
C        0.584183538   0.070641553   0.103053946
C        0.846738620   0.638884018   0.101040895
C        0.626133589   0.330109085   0.102764707
C        0.410258625   0.027176527   0.102318069
C        0.671166689   0.592207136   0.103034188
C        0.453848434   0.288623300   0.103229205
C        0.498711478   0.548286856   0.108182468
C        0.543353109   0.814551705   0.107918005
C        0.366312271   0.766033787   0.105677950
C        0.321212260   0.156885610   0.001655230    0   0   0
C        0.190768100   0.374254910   0.001552990    0   0   0
C        0.234243470   0.635131920   0.002312530    0   0   0
C        0.016846530   0.330773110   0.002032650    0   0   0
C        0.277723170   0.896010930   0.002379760    0   0   0
C        0.060331320   0.591658670   0.002491920    0   0   0
C        0.842941550   0.287314450   0.002424820    0   0   0
C        0.103815610   0.852542070   0.001984390    0   0   0
C        0.886419290   0.548185310   0.002293790    0   0   0
C        0.669026660   0.243839540   0.002463130    0   0   0
C        0.147299760   0.113406210   0.001333400    0   0   0
C        0.929905030   0.809054770   0.001531610    0   0   0
C        0.712503040   0.504694910   0.001830000    0   0   0
C        0.495119600   0.200371840   0.002131170    0   0   0
C        0.973381210   0.069918610   0.001356890    0   0   0
C        0.755993580   0.765576760   0.001306650    0   0   0
C        0.538595990   0.461216140   0.001406940    0   0   0
C        0.799463290   0.026430140   0.001705300    0   0   0
C        0.582080410   0.722093790   0.001428040    0   0   0
C        0.364683660   0.417744870   0.001297060    0   0   0
C        0.625549080   0.982954240   0.002180210    0   0   0
C        0.408152470   0.678603210   0.001857240    0   0   0
C        0.451640100   0.939480860   0.002466810    0   0   0
C        0.234183110   0.301525320   0.001326260    0   0   0
C        0.277657590   0.562381980   0.001921710    0   0   0
C        0.060263910   0.258030270   0.001624330    0   0   0
C        0.321124300   0.823251770   0.002490750    0   0   0
C        0.103730080   0.518897260   0.002362490    0   0   0
C        0.886344650   0.214546000   0.002105370    0   0   0
C        0.147223900   0.779789370   0.002361420    0   0   0
C        0.929820540   0.475432260   0.002505060    0   0   0
C        0.712421990   0.171059680   0.002460820    0   0   0
C        0.190709030   0.040658520   0.001630980    0   0   0
C        0.973306060   0.736304900   0.001950530    0   0   0
C        0.755919530   0.431977370   0.002256040    0   0   0
C        0.016807270   0.997192160   0.001340980    0   0   0
C        0.799403330   0.692821740   0.001504180    0   0   0
C        0.582008770   0.388484820   0.001776100    0   0   0
C        0.842887930   0.953707140   0.001400800    0   0   0
C        0.625490320   0.649344160   0.001301950    0   0   0
C        0.408106360   0.345004940   0.001389420    0   0   0
C        0.668964960   0.910213020   0.001771250    0   0   0
C        0.451568890   0.605854230   0.001477050    0   0   0
C        0.495041120   0.866728140   0.002236740    0   0   0
C        0.538528800   0.127618280   0.002454000    0   0   0
C        0.364614730   0.084148470   0.002096190    0   0   0



     Writing output data file CNT_ox.save/
     NEW-OLD atomic charge density approx. for the potential

     Check: negative core charge=   -0.000002

     negative rho (up, down):  4.854E-03 0.000E+00

     total cpu time spent up to now is     7945.8 secs

     Self-consistent Calculation

     iteration #  1     ecut=    40.00 Ry     beta= 0.40
     Davidson diagonalization with overlap
     ethr =  1.00E-06,  avg # of iterations =  4.8

     negative rho (up, down):  4.797E-03 0.000E+00

     total cpu time spent up to now is     8311.2 secs

     total energy              =   -1815.19466119 Ry
     Harris-Foulkes estimate   =   -1815.19543591 Ry
     estimated scf accuracy    <       0.00096416 Ry

     iteration #  2     ecut=    40.00 Ry     beta= 0.40
     Davidson diagonalization with overlap
     ethr =  2.54E-07,  avg # of iterations =  1.0

     negative rho (up, down):  4.840E-03 0.000E+00

     total cpu time spent up to now is     8481.5 secs

     total energy              =   -1815.19454802 Ry
     Harris-Foulkes estimate   =   -1815.19467955 Ry
     estimated scf accuracy    <       0.00044004 Ry

     iteration #  3     ecut=    40.00 Ry     beta= 0.40
     Davidson diagonalization with overlap
     ethr =  1.16E-07,  avg # of iterations =  3.0

     negative rho (up, down):  4.726E-03 0.000E+00

     total cpu time spent up to now is     8699.3 secs

     total energy              =   -1815.19462120 Ry
     Harris-Foulkes estimate   =   -1815.19462396 Ry
     estimated scf accuracy    <       0.00002024 Ry

     iteration #  4     ecut=    40.00 Ry     beta= 0.40
     Davidson diagonalization with overlap
     ethr =  5.33E-09,  avg # of iterations =  2.2

     negative rho (up, down):  4.641E-03 0.000E+00

     total cpu time spent up to now is     8878.7 secs

     total energy              =   -1815.19461880 Ry
     Harris-Foulkes estimate   =   -1815.19462224 Ry
     estimated scf accuracy    <       0.00001053 Ry

     iteration #  5     ecut=    40.00 Ry     beta= 0.40
     Davidson diagonalization with overlap
     ethr =  2.77E-09,  avg # of iterations =  3.0

     negative rho (up, down):  4.629E-03 0.000E+00

     total cpu time spent up to now is     9106.8 secs

     total energy              =   -1815.19462069 Ry
     Harris-Foulkes estimate   =   -1815.19462118 Ry
     estimated scf accuracy    <       0.00000406 Ry

     iteration #  6     ecut=    40.00 Ry     beta= 0.40
     Davidson diagonalization with overlap
     ethr =  1.07E-09,  avg # of iterations =  2.0

     negative rho (up, down):  4.615E-03 0.000E+00

     total cpu time spent up to now is     9281.6 secs

     total energy              =   -1815.19462062 Ry
     Harris-Foulkes estimate   =   -1815.19462086 Ry
     estimated scf accuracy    <       0.00000171 Ry

     iteration #  7     ecut=    40.00 Ry     beta= 0.40
     Davidson diagonalization with overlap
     ethr =  4.51E-10,  avg # of iterations =  3.0

     negative rho (up, down):  4.623E-03 0.000E+00

     total cpu time spent up to now is     9483.2 secs

     total energy              =   -1815.19462064 Ry
     Harris-Foulkes estimate   =   -1815.19462081 Ry
     estimated scf accuracy    <       0.00000053 Ry

     iteration #  8     ecut=    40.00 Ry     beta= 0.40
     Davidson diagonalization with overlap
     ethr =  1.39E-10,  avg # of iterations =  2.5

     negative rho (up, down):  4.653E-03 0.000E+00

     total cpu time spent up to now is     9654.5 secs

     total energy              =   -1815.19462018 Ry
     Harris-Foulkes estimate   =   -1815.19462065 Ry
     estimated scf accuracy    <       0.00000032 Ry

     iteration #  9     ecut=    40.00 Ry     beta= 0.40
     Davidson diagonalization with overlap
     ethr =  8.34E-11,  avg # of iterations =  3.0

     negative rho (up, down):  4.667E-03 0.000E+00

     total cpu time spent up to now is     9835.3 secs

     total energy              =   -1815.19461997 Ry
     Harris-Foulkes estimate   =   -1815.19462021 Ry
     estimated scf accuracy    <       0.00000012 Ry

     iteration # 10     ecut=    40.00 Ry     beta= 0.40
     Davidson diagonalization with overlap
     ethr =  3.13E-11,  avg # of iterations =  3.5

     negative rho (up, down):  4.689E-03 0.000E+00

     total cpu time spent up to now is    10049.5 secs

     total energy              =   -1815.19461965 Ry
     Harris-Foulkes estimate   =   -1815.19461999 Ry
     estimated scf accuracy    <       0.00000013 Ry

     iteration # 11     ecut=    40.00 Ry     beta= 0.40
     Davidson diagonalization with overlap
     ethr =  3.13E-11,  avg # of iterations =  1.0

     negative rho (up, down):  4.713E-03 0.000E+00

     total cpu time spent up to now is    10219.9 secs

     total energy              =   -1815.19461930 Ry
     Harris-Foulkes estimate   =   -1815.19461965 Ry
     estimated scf accuracy    <       0.00000006 Ry

     iteration # 12     ecut=    40.00 Ry     beta= 0.40
     Davidson diagonalization with overlap
     ethr =  1.69E-11,  avg # of iterations =  3.0

     negative rho (up, down):  4.858E-03 0.000E+00

     total cpu time spent up to now is    10410.4 secs

     End of self-consistent calculation

          k = 0.0000 0.0000 0.0000 (121045 PWs)   bands (ev):

   -24.6956 -22.1614 -22.0585 -21.3760 -21.3079 -21.2908 -21.2203 -21.2064
   -21.1980 -21.1329 -20.9548 -20.5553 -20.4805 -20.4617 -20.3273 -20.2834
   -20.2472 -20.2135 -19.7975 -19.3643 -18.8172 -18.8051 -18.7198 -18.5256
   -18.4898 -18.4822 -18.3919 -18.2933 -18.1365 -18.1337 -17.9907 -17.9606
   -17.9123 -17.9037 -17.8256 -17.7619 -17.7444 -17.7271 -17.6167 -17.5278
   -17.5060 -17.4791 -17.3463 -16.9798 -15.9473 -15.9412 -15.8849 -15.7222
   -14.8950 -14.8902 -14.8542 -14.7846 -14.7012 -14.6963 -14.6396 -14.5801
   -14.1805 -14.1761 -14.1213 -14.0879 -14.0758 -14.0681 -14.0284 -13.9576
   -13.7634 -13.7587 -13.7199 -13.6636 -13.5977 -13.5852 -13.5543 -13.4784
   -12.4996 -12.4988 -12.4553 -12.4478 -12.3644 -12.3567 -12.3342 -12.2786
   -11.4325 -11.4284 -11.4083 -11.3908 -10.9665 -10.9493 -10.9318 -10.9163
   -10.4755 -10.4453 -10.3743 -10.3687 -10.3507 -10.0770 -10.0043 -10.0032
    -9.9741  -9.9549  -9.9195  -9.8881  -9.8876  -9.7240  -9.5029  -9.4832
    -9.4374  -9.4281  -9.3607  -9.3598  -9.3347  -9.3319  -9.3177  -9.3114
    -9.3048  -9.2622  -9.1442  -9.1049  -9.0986  -9.0880  -8.9556  -8.7750
    -8.7644  -8.7192  -8.6634  -8.6489  -8.6253  -8.6239  -8.5277  -8.5214
    -8.5198  -8.4850  -8.4816  -8.4471  -8.2933  -8.2469  -8.2454  -8.2221
    -8.1992  -8.1811  -8.0714  -8.0065  -8.0028  -7.9833  -7.9448  -7.8078
    -7.6837  -7.6232  -7.4574  -7.3526  -7.2972  -7.2959  -7.2647  -7.2316
    -7.2301  -7.2180  -7.1739  -6.6770  -6.5597  -6.3149  -6.2720  -6.2532
[...]
   -13.1973 -13.1312 -12.8789 -12.8658 -12.8458 -12.8233 -12.8226 -12.8203
   -12.8028 -12.7910 -12.4119 -12.3975 -12.3760 -12.3619 -11.6929 -11.6689
   -11.6001 -11.5992 -11.1765 -11.1296 -11.0065 -11.0060 -10.5647 -10.4724
   -10.4566 -10.4486 -10.4213 -10.3459 -10.2671 -10.2663 -10.1065 -10.0134
    -9.8845  -9.8363  -9.7695  -9.7690  -9.5913  -9.5508  -9.5416  -9.5229
    -9.5178  -9.4960  -9.4399  -9.4321  -9.4307  -9.3880  -9.2581  -9.1931
    -9.1871  -9.1538  -9.1531  -9.1254  -9.1199  -9.0206  -9.0141  -9.0119
    -9.0041  -8.9800  -8.8880  -8.8414  -8.7836  -8.7719  -8.7161  -8.7155
    -8.5426  -8.4941  -8.4678  -8.3787  -8.2908  -8.2904  -8.2455  -8.1543
    -8.1307  -8.1076  -7.8964  -7.6293  -7.6148  -7.5530  -7.2330  -7.2316
    -7.2109  -7.2073  -7.1968  -7.1958  -7.1264  -7.0900  -7.0021  -6.9940
    -6.7221  -6.6995  -6.6433  -6.5391  -6.4933  -6.4361  -6.4352  -6.3646
    -6.3278  -6.3220  -6.1991  -6.1707  -6.0952  -6.0050  -6.0039  -5.9996
    -5.9721  -5.8847  -5.7735  -5.6702  -5.6110  -5.6010  -5.2043  -4.9045
    -4.8617  -4.7127  -4.6880  -4.5753  -4.5687  -4.5520  -4.4665  -4.3832
    -3.9135  -3.8457  -3.1810  -3.1522  -2.9259  -2.9020  -1.9063  -1.9028
    -1.7507  -1.7450  -1.2250  -1.1303  -0.7312  -0.6963  -0.6904  -0.4315
    -0.3608  -0.2264  -0.1881   0.3119   0.7071   0.7893   0.8046   1.1099
     1.1270   1.2493   1.2510   1.2556   1.4276   1.4326   1.4912   1.6178
     1.6750   1.8745   1.8838   1.8989   1.9173   1.9685   1.9714   2.0136
     2.0393   2.0399   2.2416   2.2481

          k =-0.5000-1.6243 0.0000 (120890 PWs)   bands (ev):

   -24.5681 -24.5660 -21.8210 -21.8185 -21.5869 -21.5534 -20.9644 -20.9400
   -20.8803 -20.8481 -20.8287 -20.7600 -20.5223 -20.4734 -20.1301 -20.1288
   -19.9085 -19.8001 -19.3950 -19.3808 -19.2988 -19.0953 -19.0608 -19.0402
   -18.8671 -18.6855 -18.2952 -18.2803 -18.2310 -18.1282 -18.0734 -18.0657
   -17.8619 -17.7709 -16.9508 -16.9486 -16.9394 -16.9369 -16.8892 -16.8806
   -16.7903 -16.7822 -16.6881 -16.5942 -16.5763 -16.5534 -16.1509 -16.0251
   -15.7037 -15.6677 -15.3162 -15.3081 -15.2850 -15.2319 -14.0658 -14.0530
   -14.0309 -14.0052 -13.9185 -13.9136 -13.8965 -13.8870 -13.8529 -13.8488
   -13.7704 -13.7231 -12.9806 -12.9456 -12.9348 -12.9087 -12.8501 -12.8323
   -12.8115 -12.7671 -11.8647 -11.8488 -11.8178 -11.8140 -11.7808 -11.7609
   -11.7515 -11.7119 -11.5913 -11.5891 -11.5493 -11.5489 -10.8645 -10.8275
   -10.8234 -10.7712 -10.5083 -10.4126 -10.3448 -10.3429 -10.2798 -10.2279
   -10.2158 -10.2112 -10.0928 -10.0608  -9.6073  -9.4498  -9.4262  -9.3852
    -9.3129  -9.2825  -9.0284  -9.0035  -9.0032  -8.9749  -8.9626  -8.9562
    -8.9041  -8.9008  -8.8597  -8.8512  -8.8406  -8.8389  -8.8378  -8.8360
    -8.7933  -8.7645  -8.7361  -8.7321  -8.7307  -8.7238  -8.7207  -8.7195
    -8.5320  -8.4855  -8.4035  -8.3702  -8.3627  -8.3569  -8.2818  -8.2080
    -8.1158  -8.0551  -7.8961  -7.8517  -7.7117  -7.7114  -7.6293  -7.6146
    -7.5648  -7.4790  -7.3627  -7.3482  -7.3461  -7.2933  -7.2219  -7.1160
    -6.9542  -6.8492  -6.7665  -6.5539  -6.5256  -6.3903  -6.3354  -6.3345
    -6.2615  -6.2517  -6.1484  -6.1029  -5.9918  -5.9838  -5.9829  -5.8969
    -5.7207  -5.6523  -5.4957  -5.3504  -5.0540  -4.9999  -4.9574  -4.9396
    -4.8146  -4.6849  -4.6397  -4.5295  -4.4890  -4.4753  -4.3875  -4.3675
    -4.3383  -4.2113  -4.1120  -4.0823  -3.8088  -3.5297  -1.5988  -1.2915
    -0.8579  -0.8235  -0.6551  -0.5694  -0.5024  -0.4900  -0.4336  -0.4182
    -0.3451  -0.3363  -0.0855   0.0974   0.2485   0.2851   0.7303   0.7632
     0.7663   0.7718   0.8266   0.8399   1.1284   1.1646   1.3194   1.3537
     1.6881   1.8044   1.9377   1.9420   1.9629   1.9783   2.0106   2.1210
     2.1226   2.1693   2.2147   2.2194

     the Fermi energy is    -2.4653 ev

!    total energy              =   -1815.23332756 Ry
     Harris-Foulkes estimate   =   -1815.23332730 Ry
     estimated scf accuracy    <          7.0E-09 Ry

     total all-electron energy =     -7348.628482 Ry

     The total energy is the sum of the following terms:

     one-electron contribution =  -31057.44212951 Ry
     hartree contribution      =   15600.86143387 Ry
     xc contribution           =    -455.39381393 Ry
     ewald contribution        =   14707.26890655 Ry
     one-center paw contrib.   =    -610.10963846 Ry
     smearing contrib. (-TS)   =      -0.41808608 Ry

     convergence has been achieved in   7 iterations

     negative rho (up, down):  4.909E-03 0.000E+00

     Forces acting on atoms (cartesian axes, Ry/au):

     atom    1 type  1   force =    -0.00019975   -0.00010485   -0.00010802
     atom    2 type  1   force =    -0.00123731   -0.00048394   -0.00196499
     atom    3 type  2   force =    -0.00020398   -0.00004597   -0.00012076
     atom    4 type  2   force =     0.00058624    0.00039940    0.00000796
     atom    5 type  2   force =    -0.00032837   -0.00070441   -0.00106745
     atom    6 type  2   force =    -0.00059558    0.00002945    0.00035985
     atom    7 type  2   force =     0.00006647   -0.00049981    0.00117519
     atom    8 type  2   force =    -0.00001097    0.00019906   -0.00199254
     atom    9 type  2   force =     0.00019792    0.00070596    0.00056541
     atom   10 type  2   force =     0.00100525   -0.00072436   -0.00023832
     atom   11 type  2   force =     0.00022105   -0.00059333    0.00059725
     atom   12 type  2   force =     0.00051293    0.00074374    0.00055833
     atom   13 type  2   force =     0.00068513   -0.00024381    0.00206260
     atom   14 type  2   force =    -0.00011558   -0.00092035    0.00059710
     atom   15 type  2   force =    -0.00014436   -0.00029841   -0.00010139
     atom   16 type  2   force =     0.00006878   -0.00044122   -0.00002581
     atom   17 type  2   force =    -0.00008324   -0.00013045    0.00049181
     atom   18 type  2   force =    -0.00047707   -0.00056352   -0.00005014
     atom   19 type  2   force =     0.00015842    0.00061103    0.00111398
     atom   20 type  2   force =    -0.00021959    0.00024251    0.00029090
     atom   21 type  2   force =     0.00089482   -0.00017214    0.00033245
     atom   22 type  2   force =     0.00012789    0.00020336    0.00017381
     atom   23 type  2   force =    -0.00020645    0.00006398    0.00017378
     atom   24 type  2   force =    -0.00005307   -0.00029022    0.00029056
     atom   25 type  2   force =    -0.00055007   -0.00046871    0.00054154
     atom   26 type  2   force =     0.00006098   -0.00025816    0.00175926
     atom   27 type  2   force =    -0.00017442    0.00004822   -0.00145772
     atom   28 type  2   force =     0.00130308    0.00028284    0.00048095
     atom   29 type  2   force =    -0.00054127   -0.00080716   -0.00196947
     atom   30 type  2   force =    -0.00066701   -0.00022189    0.00021245
     atom   31 type  2   force =     0.00097319    0.00023382   -0.00003620
     atom   32 type  2   force =    -0.00076970    0.00040741   -0.00099317
     atom   33 type  2   force =    -0.00014873    0.00111545    0.00037893
     atom   34 type  2   force =     0.00040873   -0.00067158    0.00111174
     atom   35 type  2   force =    -0.00084670    0.00016649    0.00069635
     atom   36 type  2   force =    -0.00021295    0.00122887    0.00085362
     atom   37 type  2   force =     0.00043541    0.00041579   -0.00017421
     atom   38 type  2   force =     0.00053930    0.00045031    0.00042348
     atom   39 type  2   force =     0.00009288    0.00140343   -0.00056591
     atom   40 type  2   force =    -0.00035005   -0.00053916    0.00086009
     atom   41 type  2   force =     0.00136791    0.00008697   -0.00001994
     atom   42 type  2   force =     0.00064078    0.00095351    0.00065010
     atom   43 type  2   force =    -0.00058399   -0.00018097    0.00059386
     atom   44 type  2   force =    -0.00012443   -0.00028766    0.00024730
     atom   45 type  2   force =    -0.00014950   -0.00037374    0.00090362
     atom   46 type  2   force =    -0.00005999   -0.00042534    0.00042239
     atom   47 type  2   force =     0.00009603   -0.00047268    0.00089955
     atom   48 type  2   force =    -0.00062578   -0.00026395   -0.00004514
     atom   49 type  2   force =    -0.00026420    0.00001901   -0.00009950
     atom   50 type  2   force =    -0.00042749    0.00002181    0.00048406
     atom   51 type  2   force =    -0.00025142   -0.00012695   -0.00046029
     atom   52 type  2   force =    -0.00013112   -0.00001683   -0.00037792
     atom   53 type  2   force =    -0.00029153    0.00005480   -0.00069878
     atom   54 type  2   force =    -0.00040129   -0.00003143   -0.00104030
     atom   55 type  2   force =    -0.00030464   -0.00035799   -0.00063222
     atom   56 type  2   force =    -0.00019862   -0.00012473   -0.00057614
     atom   57 type  2   force =    -0.00005581    0.00027490   -0.00038005
     atom   58 type  2   force =     0.00001759   -0.00043939    0.00024419
     atom   59 type  2   force =    -0.00016157   -0.00013808    0.00017468
     atom   60 type  2   force =    -0.00021395   -0.00003090   -0.00002022
     atom   61 type  2   force =    -0.00050791    0.00047423    0.00042961
     atom   62 type  2   force =    -0.00017523   -0.00023591   -0.00001026
     atom   63 type  2   force =    -0.00018903   -0.00001976    0.00013609
     atom   64 type  2   force =     0.00002153   -0.00011291    0.00006061
     atom   65 type  2   force =    -0.00033858    0.00026616    0.00005031
     atom   66 type  2   force =    -0.00031101    0.00015584   -0.00003694
     atom   67 type  2   force =     0.00003017    0.00009478    0.00039703
     atom   68 type  2   force =     0.00005129   -0.00029684    0.00056733
     atom   69 type  2   force =    -0.00022071   -0.00013201    0.00012671
     atom   70 type  2   force =    -0.00014868    0.00025044    0.00078125
     atom   71 type  2   force =    -0.00036749   -0.00010738   -0.00005162
     atom   72 type  2   force =     0.00027279   -0.00010177    0.00019134
     atom   73 type  2   force =    -0.00031670    0.00003454    0.00040432
     atom   74 type  2   force =    -0.00005747    0.00026971   -0.00022111
     atom   75 type  2   force =     0.00036617    0.00015051   -0.00076455
     atom   76 type  2   force =     0.00035678    0.00018638   -0.00094702
     atom   77 type  2   force =     0.00002234    0.00026763   -0.00100710
     atom   78 type  2   force =     0.00023982    0.00004194   -0.00117668
     atom   79 type  2   force =     0.00045321    0.00016264   -0.00102719
     atom   80 type  2   force =     0.00034382    0.00053603   -0.00064335
     atom   81 type  2   force =     0.00009953   -0.00003215   -0.00067390
     atom   82 type  2   force =     0.00040958    0.00020877   -0.00066479
     atom   83 type  2   force =     0.00062086   -0.00018440    0.00086567
     atom   84 type  2   force =     0.00011511   -0.00021440   -0.00054428
     atom   85 type  2   force =    -0.00006079    0.00034042   -0.00027889
     atom   86 type  2   force =     0.00000714   -0.00014032   -0.00001632
     atom   87 type  2   force =     0.00014655   -0.00009366   -0.00058233
     atom   88 type  2   force =     0.00005389    0.00002232   -0.00012040
     atom   89 type  2   force =    -0.00000572   -0.00003713   -0.00012834
     atom   90 type  2   force =     0.00006804    0.00005903   -0.00041846
     atom   91 type  2   force =     0.00021496    0.00028748    0.00108062
     atom   92 type  2   force =     0.00015028    0.00021812   -0.00014996
     atom   93 type  2   force =     0.00012211   -0.00007014   -0.00036456
     atom   94 type  2   force =     0.00045410   -0.00015616   -0.00077536

     Total force =     0.007975     Total SCF correction =     0.000118

     bfgs converged in  28 scf cycles and  26 bfgs steps
     (criteria: energy <  1.0E-04 Ry, force <  1.0E-02 Ry/Bohr)

     End of BFGS Geometry Optimization

     Final energy   =   -1815.2333275556 Ry
Begin final coordinates

ATOMIC_POSITIONS (crystal)
O        0.694106656   0.391274084   0.150948470
O        0.390849244   0.564933566   0.153936607
C        0.322950502   0.837887654   0.102726625
C        0.193218015   0.057056160   0.102575457
C        0.234021390   0.313106313   0.108708591
C        0.018768488   0.012427257   0.103084555
C        0.278423904   0.578618935   0.108359989
C        0.061961735   0.273201367   0.104697571
C        0.844792648   0.969019293   0.102695727
C        0.106084280   0.534732285   0.101226618
C        0.888828530   0.230528854   0.101509714
C        0.671516027   0.926696001   0.104267153
C        0.149380195   0.795521440   0.100510179
C        0.932227613   0.490855774   0.101703484
C        0.715631197   0.187854465   0.104836508
C        0.497862489   0.882794004   0.106878733
C        0.976112087   0.753007122   0.102494238
C        0.761425862   0.450629552   0.112941692
C        0.538509825   0.139191591   0.106175446
C        0.802394246   0.708907054   0.104067311
C        0.583042252   0.405011161   0.105526037
C        0.366554467   0.099510290   0.102547367
C        0.627710432   0.664664635   0.104182937
C        0.410829330   0.361978085   0.105294350
C        0.457035863   0.624499144   0.115483855
C        0.236803329   0.984248623   0.101345936
C        0.279203519   0.244353850   0.105846499
C        0.062977444   0.941134226   0.102232712
C        0.320666747   0.502991619   0.116553748
C        0.105632075   0.200321930   0.105466838
C        0.888455012   0.896452436   0.102775128
C        0.149553119   0.462300325   0.104520584
C        0.932323806   0.157646522   0.102595817
C        0.715029758   0.853674979   0.103599073
C        0.192898837   0.722462803   0.100971455
C        0.975732869   0.418179725   0.100573734
C        0.758633992   0.114893891   0.102716685
C        0.019616500   0.679895955   0.101520177
C        0.803334418   0.374554071   0.105289277
C        0.583890636   0.070374316   0.105925728
C        0.847670989   0.640139870   0.105316936
C        0.625157319   0.329131565   0.112962268
C        0.410014592   0.026251440   0.103186943
C        0.670773401   0.591388352   0.104263183
C        0.453805734   0.288614402   0.103534388
C        0.498569230   0.548323740   0.107143969
C        0.543131245   0.813864633   0.107880655
C        0.366062667   0.765226981   0.106342110
C        0.321212260   0.156885610   0.001655230    0   0   0
C        0.190768100   0.374254910   0.001552990    0   0   0
C        0.234243470   0.635131920   0.002312530    0   0   0
C        0.016846530   0.330773110   0.002032650    0   0   0
C        0.277723170   0.896010930   0.002379760    0   0   0
C        0.060331320   0.591658670   0.002491920    0   0   0
C        0.842941550   0.287314450   0.002424820    0   0   0
C        0.103815610   0.852542070   0.001984390    0   0   0
C        0.886419290   0.548185310   0.002293790    0   0   0
C        0.669026660   0.243839540   0.002463130    0   0   0
C        0.147299760   0.113406210   0.001333400    0   0   0
C        0.929905030   0.809054770   0.001531610    0   0   0
C        0.712503040   0.504694910   0.001830000    0   0   0
C        0.495119600   0.200371840   0.002131170    0   0   0
C        0.973381210   0.069918610   0.001356890    0   0   0
C        0.755993580   0.765576760   0.001306650    0   0   0
C        0.538595990   0.461216140   0.001406940    0   0   0
C        0.799463290   0.026430140   0.001705300    0   0   0
C        0.582080410   0.722093790   0.001428040    0   0   0
C        0.364683660   0.417744870   0.001297060    0   0   0
C        0.625549080   0.982954240   0.002180210    0   0   0
C        0.408152470   0.678603210   0.001857240    0   0   0
C        0.451640100   0.939480860   0.002466810    0   0   0
C        0.234183110   0.301525320   0.001326260    0   0   0
C        0.277657590   0.562381980   0.001921710    0   0   0
C        0.060263910   0.258030270   0.001624330    0   0   0
C        0.321124300   0.823251770   0.002490750    0   0   0
C        0.103730080   0.518897260   0.002362490    0   0   0
C        0.886344650   0.214546000   0.002105370    0   0   0
C        0.147223900   0.779789370   0.002361420    0   0   0
C        0.929820540   0.475432260   0.002505060    0   0   0
C        0.712421990   0.171059680   0.002460820    0   0   0
C        0.190709030   0.040658520   0.001630980    0   0   0
C        0.973306060   0.736304900   0.001950530    0   0   0
C        0.755919530   0.431977370   0.002256040    0   0   0
C        0.016807270   0.997192160   0.001340980    0   0   0
C        0.799403330   0.692821740   0.001504180    0   0   0
C        0.582008770   0.388484820   0.001776100    0   0   0
C        0.842887930   0.953707140   0.001400800    0   0   0
C        0.625490320   0.649344160   0.001301950    0   0   0
C        0.408106360   0.345004940   0.001389420    0   0   0
C        0.668964960   0.910213020   0.001771250    0   0   0
C        0.451568890   0.605854230   0.001477050    0   0   0
C        0.495041120   0.866728140   0.002236740    0   0   0
C        0.538528800   0.127618280   0.002454000    0   0   0
C        0.364614730   0.084148470   0.002096190    0   0   0
End final coordinates



     Writing output data file CNT_ox.save/

     init_run     :    144.00s CPU    145.96s WALL (       1 calls)
     electrons    :  81018.13s CPU  82282.16s WALL (      28 calls)
     update_pot   :    243.62s CPU    257.87s WALL (      27 calls)
     forces       :   2556.89s CPU   2606.89s WALL (      28 calls)

     Called by init_run:
     wfcinit      :    127.05s CPU    127.92s WALL (       1 calls)
     potinit      :      6.23s CPU      6.77s WALL (       1 calls)
     hinit0       :      4.34s CPU      4.39s WALL (       1 calls)

     Called by electrons:
     c_bands      :  67331.01s CPU  67899.02s WALL (     370 calls)
     sum_band     :   9095.50s CPU   9322.70s WALL (     370 calls)
     v_of_rho     :   1509.91s CPU   1713.11s WALL (     391 calls)
     newd         :   1391.09s CPU   1571.41s WALL (     391 calls)
     PAW_pot      :     30.85s CPU     30.89s WALL (     418 calls)
     mix_rho      :   1838.52s CPU   1944.44s WALL (     370 calls)

     Called by c_bands:
     init_us_2    :    158.00s CPU    158.54s WALL (    3184 calls)
     cegterg      :  67086.20s CPU  67648.44s WALL (    1480 calls)

     Called by sum_band:
     sum_band:bec :      4.26s CPU      4.29s WALL (    1588 calls)
     addusdens    :   1359.41s CPU   1516.00s WALL (     370 calls)

     Called by *egterg:
     h_psi        :  33719.38s CPU  34065.24s WALL (    6462 calls)
     s_psi        :  12846.97s CPU  12875.29s WALL (    6462 calls)
     g_psi        :     16.80s CPU     16.89s WALL (    4978 calls)
     cdiaghg      :    899.96s CPU    914.77s WALL (    6322 calls)

     Called by h_psi:
     h_psi:pot    :  33699.01s CPU  34005.43s WALL (    6462 calls)
     h_psi:calbec :  15035.70s CPU  15077.97s WALL (    6462 calls)
     vloc_psi     :   3441.97s CPU   3670.82s WALL (    6462 calls)
     add_vuspsi   :  15221.22s CPU  15256.58s WALL (    6462 calls)

     General routines
     calbec       :  24064.22s CPU  24131.31s WALL (    8498 calls)
     fft          :   1436.53s CPU   1476.93s WALL (   26319 calls)
     ffts         :    885.36s CPU    969.56s WALL (  217950 calls)
     fftw         :   3828.01s CPU   4080.82s WALL ( 1878452 calls)
     interpolate  :     24.58s CPU     25.28s WALL (     391 calls)

     Parallel routines
     fft_scatt_xy :    618.60s CPU    645.70s WALL ( 2122721 calls)
     fft_scatt_yz :   2964.22s CPU   3204.15s WALL ( 2122721 calls)

     PWSCF        :     23h29m CPU     23h52m WALL


   This run was terminated on:  20:34:27  18Mar2025            

=------------------------------------------------------------------------------=
   JOB DONE.
=------------------------------------------------------------------------------=
